# vtk DataFile Version 1.0
GRUMMP topologically 2D mesh
ASCII

DATASET UNSTRUCTURED_GRID
POINTS 4142 float
  0.9902132100051211  -0.0013897599745845   0.0000000000000000
  0.9878682672001325  -0.0017209544766007   0.0000000000000000
  0.9922830260938109  -0.0010965337451688   0.0000000000000000
  0.9852627687065505  -0.0020876945602550   0.0000000000000000
  0.9824126515147726  -0.0024873693035198   0.0000000000000000
  0.9941016532545700  -0.0008382294190312   0.0000000000000000
  0.9793229395886266  -0.0029189889321549   0.0000000000000000
  0.9759912936709813  -0.0033826574903297   0.0000000000000000
  0.9957253756688895  -0.0006072067599891   0.0000000000000000
  0.9724158418644283  -0.0038783672872607   0.0000000000000000
  0.9972114818934485  -0.0003956828894990   0.0000000000000000
  0.9685983419668763  -0.0044053177853816   0.0000000000000000
  0.9986172604849257  -0.0001958749290171   0.0000000000000000
  0.9645418982154840  -0.0049624143705746   0.0000000000000000
  0.9602493276520160  -0.0055486932126648   0.0000000000000000
  1.0000000000000000   0.0000000000000000   0.0000000000000000
  0.9557225436143375  -0.0061636003738353   0.0000000000000000
  0.9986172604763917   0.0001958749302285   0.0000000000000000
  0.0136778115501445  -0.0198442283865115   0.0000000000000000
  0.9509632892996972  -0.0068066585239019   0.0000000000000000
  0.0111799405480040  -0.0180409152078963   0.0000000000000000
  0.9972114818757430   0.0003956828920181   0.0000000000000000
  0.0164236219435115  -0.0216216850259729   0.0000000000000000
  0.9459737546847580  -0.0074771440326796   0.0000000000000000
  0.0194159763686392  -0.0233724637256901   0.0000000000000000
  0.0089312659290954  -0.0162123970812813   0.0000000000000000
  0.9957253756403164   0.0006072067640564   0.0000000000000000
  0.9353156997544615  -0.0088958032333210   0.0000000000000000
  0.0226532123065557  -0.0250954152174871   0.0000000000000000
  0.0261336316774566  -0.0267893559859237   0.0000000000000000
  0.0068429846519911  -0.0142695304151425   0.0000000000000000
  0.9237713702124288  -0.0104115615140689   0.0000000000000000
  0.0298554003449755  -0.0284531869488138   0.0000000000000000
  0.9941016532123735   0.0008382294250309   0.0000000000000000
  0.0050308200222286  -0.0123013782195995   0.0000000000000000
  0.0012596550434314  -0.0062543845982477   0.0000000000000000
  0.9113626015789812  -0.0120184565864932   0.0000000000000000
  0.0338165365583016  -0.0300859006297539   0.0000000000000000
  0.0005600587198625  -0.0041872521188657   0.0000000000000000
  0.0034956879705714  -0.0103096477045821   0.0000000000000000
  0.0380150486067802  -0.0316864834866382   0.0000000000000000
  0.0001400674572995  -0.0020989425108620   0.0000000000000000
  0.0424489169588349  -0.0332538061244847   0.0000000000000000
  0.8981160449036193  -0.0137076729882106   0.0000000000000000
  0.9922830260341767   0.0010965337536290   0.0000000000000000
  0.0022384105171692  -0.0082946477552229   0.0000000000000000
  0.0000000000000000  -0.0000000005380880   0.0000000000000000
  0.0471161050109934  -0.0347866680569130   0.0000000000000000
  0.8692172420003259  -0.0173025512123363   0.0000000000000000
  0.8840586048664243  -0.0154712341935952   0.0000000000000000
  0.8536242589802903  -0.0191927756559575   0.0000000000000000
  0.0520144653095357  -0.0362838744017245   0.0000000000000000
  0.9902132099234322   0.0013897599861408   0.0000000000000000
  0.0001400673054027   0.0020989413744649   0.0000000000000000
  0.0005600583994229   0.0041872509286527   0.0000000000000000
  0.0089312642537700   0.0162123956290166   0.0000000000000000
  0.0068429832427153   0.0142695290019493   0.0000000000000000
  0.0022384098100130   0.0082946464730838   0.0000000000000000
  0.0034956870455263   0.0103096463775504   0.0000000000000000
  0.0050308188630767   0.0123013768482443   0.0000000000000000
  0.0111799386902237   0.0180409137864515   0.0000000000000000
  0.8373107726191357  -0.0211334926288444   0.0000000000000000
  0.0624935355792051  -0.0391666954139108   0.0000000000000000
  0.9878682670932252   0.0017209544916756   0.0000000000000000
  0.0136778095139640   0.0198442269960848   0.0000000000000000
  0.8203090273240524  -0.0231167391866414   0.0000000000000000
  0.0738633143603066  -0.0418930499584099   0.0000000000000000
  0.8026551811301268  -0.0251343400368426   0.0000000000000000
  0.9852627685719384   0.0020876945791685   0.0000000000000000
  0.0861021386417074  -0.0444536409739349   0.0000000000000000
  0.7843840873894279  -0.0271778197795966   0.0000000000000000
  0.9824126513500548   0.0024873693265746   0.0000000000000000
  0.0991843265815398  -0.0468392532814141   0.0000000000000000
  0.0164236197329729   0.0216216836667636   0.0000000000000000
  0.7461418339277840  -0.0313078737465108   0.0000000000000000
  0.9793229393907722   0.0029189889597428   0.0000000000000000
  0.1130825286139299  -0.0490420520078216   0.0000000000000000
  0.7058944105034720  -0.0354399888107516   0.0000000000000000
  0.1277704618123611  -0.0510562827506626   0.0000000000000000
  0.1762568929815641  -0.0559042078350805   0.0000000000000000
  0.0194159739879911   0.0233724623981675   0.0000000000000000
  0.6639684116827792  -0.0395008026994765   0.0000000000000000
  0.1937838883744062  -0.0571083155282771   0.0000000000000000
  0.9759912934368556   0.0033826575228533   0.0000000000000000
  0.2119350336566717  -0.0581032139582273   0.0000000000000000
  0.1432165586985055  -0.0528747491799113   0.0000000000000000
  0.1593891568184451  -0.0544918670991958   0.0000000000000000
  0.0226532097601106   0.0250954139222151   0.0000000000000000
  0.6207078411914361  -0.0434191082996254   0.0000000000000000
  0.5764634620046084  -0.0471137377839725   0.0000000000000000
  0.9724158415910057   0.0038783673250912   0.0000000000000000
  0.2306739249637577  -0.0588890260835713   0.0000000000000000
  0.0261336289695199   0.0267893547234291   0.0000000000000000
  0.5315950381341085  -0.0505057454921963   0.0000000000000000
  0.4864703588817339  -0.0535094604401647   0.0000000000000000
  0.4414549182767121  -0.0560390634426787   0.0000000000000000
  0.9685983416513994   0.0044053178288238   0.0000000000000000
  0.2697570606452168  -0.0598365819607799   0.0000000000000000
  0.3969170552729402  -0.0580119076690758   0.0000000000000000
  0.0298553974799863   0.0284531857194991   0.0000000000000000
  0.9645418978552561   0.0049624144199126   0.0000000000000000
  0.3107174127482247  -0.0599745523566999   0.0000000000000000
  0.3532197168655907  -0.0593474025151865   0.0000000000000000
  0.9602493272443249   0.0055486932681955   0.0000000000000000
  0.0338165335406938   0.0300858994339835   0.0000000000000000
  0.0380150454409591   0.0316864823247920   0.0000000000000000
  0.9557225431564565   0.0061636004358678   0.0000000000000000
  0.0424489136491938   0.0332538049970267   0.0000000000000000
  0.0471161015618897   0.0347866669642923   0.0000000000000000
  0.9509632887889385   0.0068066585927330   0.0000000000000000
  0.9459737541185675   0.0074771441085412   0.0000000000000000
  0.0520144617255517   0.0362838733443521   0.0000000000000000
  0.9353156990700551   0.0088958033238094   0.0000000000000000
  0.0624935317401540   0.0391666944281135   0.0000000000000000
  0.0738633102849253   0.0418930490455120   0.0000000000000000
  0.9237713694002159   0.0104115616199952   0.0000000000000000
  0.0861021343485112   0.0444536401350998   0.0000000000000000
  0.9113626006299211   0.0120184567085017   0.0000000000000000
  0.0991843220904188   0.0468392525175462   0.0000000000000000
  0.8981160438094651   0.0137076731266115   0.0000000000000000
  0.1130825239435962   0.0490420513187447   0.0000000000000000
  0.8840586036192291   0.0154712343488011   0.0000000000000000
  0.1277704569818227   0.0510562821360933   0.0000000000000000
  0.8692172405930260   0.0173025513845012   0.0000000000000000
  0.1432165537277111   0.0528747486397878   0.0000000000000000
  0.8536242574066383   0.0191927758449732   0.0000000000000000
  0.1593891517258480   0.0544918666322352   0.0000000000000000
  0.8373107708732270   0.0211334928345504   0.0000000000000000
  0.1762568877862003   0.0559042074398506   0.0000000000000000
  0.8203090254010921   0.0231167394087162   0.0000000000000000
  0.1937838830953411   0.0571083152030304   0.0000000000000000
  0.2119350283118140   0.0581032137003017   0.0000000000000000
  0.8026551790260408   0.0251343402747870   0.0000000000000000
  0.2306739195716207   0.0588890258904683   0.0000000000000000
  0.7843840851007032   0.0271778200327233   0.0000000000000000
  0.2697570552113356   0.0598365818878674   0.0000000000000000
  0.7461418312636445   0.0313078740273454   0.0000000000000000
  0.3107174073396524   0.0599745523895525   0.0000000000000000
  0.3532197115457904   0.0593474026374948   0.0000000000000000
  0.7058944074605978   0.0354399891145804   0.0000000000000000
  0.6639684082655058   0.0395008030201497   0.0000000000000000
  0.3969170500997217   0.0580119078642495   0.0000000000000000
  0.6207078374111498   0.0434191086291270   0.0000000000000000
  0.5764634578798972   0.0471137381129498   0.0000000000000000
  0.5315950336908907   0.0505057458089039   0.0000000000000000
  0.4864703541532008   0.0535094607315534   0.0000000000000000
  0.4414549133024901   0.0560390636939180   0.0000000000000000
  0.9901595609719056  -0.0023783411927147   0.0000000000000000
  0.0326649145266362  -0.0334200843455863   0.0000000000000000
  0.9878329678703356  -0.0027145673674890   0.0000000000000000
  0.0733998606732272  -0.0440344159407381   0.0000000000000000
  0.9922372924577029  -0.0020726951087579   0.0000000000000000
  0.8846838814295012  -0.0208009306521702   0.0000000000000000
  0.9852539181750185  -0.0030832573491977   0.0000000000000000
  0.8205556230767344  -0.0253024477924150   0.0000000000000000
  0.9824277530968584  -0.0034836508822686   0.0000000000000000
 -0.0022154120548041  -0.0049277430541563   0.0000000000000000
[...]
POINT_DATA 4142
SCALARS continuity float
LOOKUP_TABLE default
-0.00016915511172389008
-0.0010919658939066476
0.0008217349041995319
-0.0016937137324604522
-0.0020774266008597017
0.002976623262496094
-0.0023783738348563473
-0.0025758639172856145
0.0070507912727504965
-0.0026921417254376543
-0.005524356926870735
-0.0028313499419378046
0.029021746694827176
-0.002947380042746872
-0.003074460824873366
0.013202904047273813
-0.0032190456127002276
0.03260433393912497
-0.007662805863865504
-0.0032519917728922984
-0.008642921975362042
-0.0010170317411780049
-0.006628497897609105
-0.0036649062790691436
-0.005570888876044919
-0.008985105922501733
-0.010585198050405115
-0.004144464205869631
-0.004561894844864049
-0.0036629676820851055
-0.009373139502347071
-0.004838797104120977
-0.002884693166709885
-0.006605875911245415
-0.008891012591273754
-0.004387817032765681
-0.005474901250373427
-0.0022294841092765864
-0.0025450206159918377
-0.007803562325572435
-0.001686951874462918
-0.0006759161487606731
-0.0012920549814647467
-0.00599488723942267
-0.003667948965958028
-0.0062271266190650565
0.0010130531351157921
-0.0012413575375239622
-0.0065294081143355675
-0.00620823506015036
-0.006780429759092917
-0.0004024395608676584
-0.0025384578166923037
0.0008782478939405496
0.014724489381872234
0.00925671472994634
0.009753149807484856
-0.0005939212854705464
0.014274192475904049
0.010972639963660099
0.009388949894760103
-0.007247995796718093
-0.00017408145287987857
-0.00136311541688439
0.008675149130356028
-0.007562022295840377
-6.214459404014057e-05
-0.008186817681122723
-0.0006021271248666601
-7.624799033418678e-05
-0.008466110774075709
4.999479051492516e-06
-3.737477492839909e-05
0.007888385376006123
-0.009488276669102437
0.00038863702560312243
6.957383786732665e-05
-0.010669667149729594
0.0002548919354098525
0.0013823019053346964
0.007118842284485096
-0.012468917719621114
0.0018449729641946044
0.0007333529475607648
0.0021007514325067506
0.0005334767125212856
0.0009199890996022312
0.00639462293404124
-0.013959807496652531
-0.01431389409890292
0.001024391878956219
0.003351214861830228
0.00572570474406389
-0.012865668494923585
-0.009141228741296146
-0.0033183928150473862
0.001258040963788016
0.005169295805045111
0.003165344639258712
0.005139692653988567
0.0014605920072413342
0.00833424416002226
0.00772114256827693
0.0016661862395547556
0.004630411589185083
0.004198238943082736
0.0019187428903856454
0.003868921114835166
0.003631767997500734
0.002168385215879577
0.0027080573102902686
0.003561969693797254
0.0032185217096371726
0.002661404253426677
0.0026363917298222205
0.0039368257834982495
0.0026423428114024797
0.0046051576429612575
0.0025011332171849376
0.004872417335465468
0.002251847337053127
0.005218454047419158
0.0019057676234452165
0.00518586296822148
0.0014706958526150015
0.005445716725112497
0.0009455493388598043
0.005369469473296502
0.0003590243646384966
0.0056725075213143305
-0.0001837786599553439
-0.0006422344148621619
0.005982154316900827
-0.0017618274793273281
0.0063543668279243985
-0.003543157703438287
0.006392715269476919
-0.005968053299885352
-0.005245587277365422
0.007450704187451189
0.00868237651442998
-0.001463899505695056
0.01002171420525342
0.010725793420202778
0.010182164537754338
0.00782672670782552
0.0035954389752982066
-0.0001833978267506951
-0.001422327856199818
-0.0011526714194995233
6.0526462302493626e-05
0.00034546785990359377
-0.0062534928080372615
-0.0016986482306276902
-0.0075904651722258154
-0.0020704970115542846
-0.002374090841415427
0.002666972685290378
0.004651573039433293
-0.002361581089169131
0.0009150542829406108
-0.002555799208759254
-0.001177491132851581
0.0024509163181618897
-0.006379912839679758
-0.0026707767194812364
0.00021305590958899508
0.00013667277745664825
-0.006589972537189269
-0.0028102138623853977
-0.007274078363906403
0.005132051447543144
-0.0008008178288655911
-0.002929207764370717
0.005472608058381466
-0.00305882036532041
-0.0015970695020209509
-0.005350690919331391
-0.016565306751992484
-0.007252486566739526
-0.0017825323020381695
-0.0027509661778725245
-0.0016661652750565334
-0.000949901632385093
-0.0032130328226840634
0.009325462211771449
-0.04306864069829396
-0.0005037397577476213
-0.0036244246291990906
0.011465859241148514
-0.003259394054853532
-0.0005138323214150527
-0.004149429016603562
0.0070794214388098875
-0.012579159125462288
-0.00035784827345637345
-0.0031633157201480626
0.007460137578859577
-0.003669154625265659
-0.003184215021534672
-0.0027333158686064078
0.006337908341625114
-0.00440614446556892
-0.006013063956007108
-0.007797916904203372
0.005653028878881007
-0.004162891003310174
0.0017047776712080125
-0.0023164912677544206
0.003914228407585214
-0.001967148528260663
-0.002676446834642531
-0.00484117526141191
-0.0023056636370860735
-0.004860985680270959
-0.0035871095869901247
-0.0016421421317311215
-0.00014628544493149197
-0.007018077753576062
-0.005391505029716386
-0.005009601627477011
-0.00680419941089264
-0.003660298845199919
-0.0044698165486358795
-0.0054986179119896695
-0.006220424445664611
-0.0013797724895934767
0.001737358012958127
-0.002418486920299323
-0.0065484493037605744
-0.0049311297957114015
-0.003275371172426206
-0.001165576676691272
-0.0003419445838918631
-0.0009039442039033874
-7.632746197076396e-05
-0.001008180397373233
0.0016626065582749168
-0.00601806619437853
-0.0024453146682712453
-0.003346654492841743
-0.007211535960033711
-0.004482679509885705
-0.006565863420385732
0.0008957351022392081
-0.003505661241804419
-0.0010157728539893387
0.0013208317348362621
-0.006551160046508731
-0.006000380513707392
-0.00623425943174525
-0.0062373189879465635
-0.0068067478701270435
-0.00039926971103964757
-0.0007250244884751254
-0.006023422541635599
-0.0026638265027143677
-0.001128758636461628
0.002034262826931378
-0.006825497919010355
0.004577994949915812
-0.0006090536061446318
0.002864619251576504
-0.003122064869676004
0.0031120686154886995
-0.008201707736153419
0.002521538602747386
0.00020781777049269038
0.008880254421631387
-0.0035036841301399097
0.005176478300193741
-0.0010949121835928269
0.0030653176765510102
-0.0009647462006441161
-0.007273898958295139
-0.0018815452442650304
-0.00041981148150565595
-0.005478254517190179
-0.0013605284870210907
-0.0014920452245853753
0.0030912467723197955
-0.005594221333698538
-0.007589709275791968
0.0038515694528532905
-0.0005144125249061134
-0.008583638684195724
-0.008253554757487526
-0.0002923863365743673
-0.0006451539992111157
-0.005664385894965153
-0.0006177773598101285
0.004453179491393117
-0.008464392719540277
-0.001411915570677161
-3.9181065457274044e-05
-0.0011141769028339078
-0.0006178889036189181
-0.004847625699787302
0.0031035252633325474
0.006605215058252025
-0.009541339271300275
-0.008384536148586917
0.00034030081133338137
-0.0017493647693400042
-0.0005255120578064453
-0.002003195168050581
-0.010721817739119085
0.0073336660997705486
-0.0003391995952643304
-0.0027352403727767247
0.0008423913010229336
-0.006611476891622316
0.003141468517307888
-0.004164307795854692
-0.012531100782036102
0.006157862438148585
0.001338721218492195
-0.01068240023727232
0.0006826111108621616
-0.0052153010587963474
0.0016658778592018593
-0.007689522299104565
-4.896606751733992e-05
0.008600705025189653
0.0003546025511123807
-0.0036241528371511286
0.0031517738939217505
0.0005549928599187117
-0.014036856905867487
-0.003698221305318813
-0.014407629714761647
0.008285095180901926
0.0009724079331141917
-0.004641889229818544
0.0028295762839045425
-0.001956831060197408
0.0031667398213111536
-0.006149504317731711
-0.012978994098891403
0.005964107434715042
-0.009280462505853675
-0.006852080245024473
-0.0034941031364553714
-0.006265013722284246
0.001207751978832483
-0.0033039644236583735
0.004796342428367767
-0.007298057974091219
0.002952428674683756
-0.005732943920074788
0.0031516386304240806
-0.0024804271774819735
0.0014155068587325273
-0.03878680225089526
0.008014172716560394
0.0007402690044944369
0.007459144228650893
-0.003270182343646221
0.0016284149940026453
-0.006003776938883286
0.00313748293580216
-0.003127715835308527
0.003107394224860234
-0.0009178333816641575
0.0018890594055977132
-0.0030095241982950934
0.003080168856733427
-0.0055019923460089834
0.0031389234136812295
0.0510404539687065
0.0021510376981239243
0.00525000931938058
0.0026962486958478885
-0.0029038802839515677
0.003202153556033235
-0.006877702694539156
0.0032189277976369945
-0.0017891699484588633
0.002681004821653615
-0.007611813387415555
0.002835968140922179
-0.002773899196135122
0.003939374849074715
-0.003385790491060652
0.0029727147690398665
0.009557020858256297
0.004611529533682182
0.000628138921706225
0.0029088659134286453
-0.002672512336121172
0.00488035332347906
-0.006312472473217594
0.002703630221089629
-0.0024943687601435946
0.005226990034089632
-0.00827681305424499
0.002379248073522174
0.001869250214727682
0.005194019168209276
-0.005620446107925594
0.0019464912478632393
-0.002219801227593322
0.005452171162273027
-0.00028754526975702867
0.0014157722399442368
-0.0018808927807507985
0.0053791533654539226
-0.0009582923564660806
0.0008124200714576017
0.000763786411262807
0.005682593664742782
0.0004548605291482936
0.0002478391778543502
-0.0013405510798565772
-0.00026557019526702176
-0.003740502305157145
0.006019872896271032
-0.0005050825082538536
-0.0013342735688819333
-0.008495165559775407
0.006341651463898336
-0.0018988304804736591
-0.003225136061060336
-0.0018656406313717858
0.006426288453963766
-0.00018416204850588296
-0.005699639764612986
0.0002516649274007474
-0.005028764764842746
0.005698078699111544
0.007481999744141968
-0.00318266515317042
0.008722664333026741
0.010406324179884739
-0.0012856251737096186
0.0003144006753369879
0.010076484734102
0.006386791229615366
0.010795147823861678
-0.0009557739725816519
0.01027194237087432
0.0011839336387033492
0.00794091490627439
0.00446953441885417
0.0037366853011755042
-0.0037508692251261807
-0.008247928856194915
-0.00603183631061941
-0.0004813738908171961
-0.0054910377876388845
-0.00012738656983328755
-0.006849527022213721
-0.008462028714853664
-0.004063897906491761
9.323369959581636e-05
-0.0031998171311518253
-0.00022061840550070255
-0.0070179508588742836
0.003923721765288346
-8.635911777162534e-06
-0.009551609111589887
-0.004284984297200214
0.0004538230690927111
-0.002002011926832939
-0.00021488999868474472
-0.0021607377764174193
-0.010741248136436312
-0.0014602991798889407
-0.00010445652885478644
-0.004863266495257426
0.0009046501418615396
-0.0018186247468704728
0.0033387154449376517
-0.007312924685011005
-0.012548593063766364
0.0034335057657747903
0.0013707636829610253
-0.0030031095066768787
0.000787707403489347
-0.00020671097673004594
0.0016673646961455242
-0.003914229263196511
0.00011891934401148511
0.004291066287276197
0.00046489749502214435
-0.004193479122011292
0.0029211081145352224
-0.00020989186617747211
-0.01404956838405872
-0.0044505305148309325
-0.01442041429457566
0.006679350498889125
0.0010664091353553807
-0.00724698294763984
0.002805781479430084
-0.002440222634708439
0.002598863834096691
-0.0048515490280283315
-0.012989014592984252
-0.00854453221557165
-0.009286665589084274
-0.003746490429300222
-0.0034858801055711497
0.007096584661980418
0.0012973463193313136
-0.0057062963358477815
0.004796066351503812
-0.00660919925980875
0.0029737194225657026
-0.0057087420414553254
0.002366197462356957
0.006245089202023108
0.0014933842957825737
-0.007012365942359014
0.008047703569888404
-0.004135876658066551
0.007496135394706228
-0.003360805372161969
0.0016951963981988699
0.007214024143761981
0.0022182457393030157
-0.006441647990506182
0.002113316567104277
0.00029083310996069414
0.0019415057499818518
-0.004301152523250215
0.0020910779158240557
0.007507160465743468
0.0021176773118804656
-0.0033382650067248264
0.002182493891989218
-0.0015237423778828752
0.002705075196884844
-0.0032089011899950983
0.002248787163057787
0.00629377910779675
0.0032012705696064713
-0.003102713006014234
0.001801334940128307
-0.006247021112367113
0.00206753148550815
0.0006897675029108858
0.003906411596881706
-0.0073289762218186946
0.0023257931506668454
-0.003008624194089849
0.004575889180247475
-0.002811313390508899
0.0023914541418441197
0.000502407508918732
0.004845893471086352
0.0008983417233351342
0.002301070960008214
-0.0028912239095016793
0.005200583294112772
-0.005901168275544415
0.002072448466760572
0.0019258557689477555
0.005172481871623042
-0.0006145257225639411
0.0017220475917480652
-0.002809256336375759
0.005438716483940424
-0.005506863017489258
0.0012572746413293603
-0.002652902250435168
0.005366744217944013
0.005887241117475406
0.0007041690952137294
0.0007848374833407795
0.005672873553953362
-0.006885383179379904
0.00017789294422660367
-0.00240561899495519
-0.0003093760342588771
-0.007647214638362656
0.006004949049801245
-0.002117570324837951
-0.0013533717162809602
-0.002714660192251794
0.006328945922815196
-0.00018697411382830815
-0.003263545832538
0.001111344385131523
0.006421634233322167
-0.0016481331831172477
-0.0057655088818465185
0.0010070231776241555
-0.005089323329464242
-0.0009688054667052284
0.007487054406920078
-0.008321214839009779
0.00872634656877304
0.00106252122961162
-0.0013255640173669484
-0.004395373616113879
0.010074638003433027
0.001606252421911659
0.010792840264506281
-4.07351443881098e-05
0.010266841804987034
0.0012871073218173833
0.007930659391402408
-0.0016921682468850447
0.00371668198750705
-0.0018736688085662877
-0.004878524729664073
-0.009590529330991937
-0.0010483503585099366
0.0005836765475460094
-0.005781121463009671
0.00023612778532557165
0.0026221669999337478
-0.010788921715678959
-0.0038349704400005343
0.00024832713422402475
-0.00036812821568787035
0.000989008924592232
-0.004389458958532026
0.0036921937831208857
0.0035961107994366124
-0.012594962615346154
-0.004220661785333309
0.0013879489351967557
-1.4651846495560895e-05
0.0008985081656832034
-0.006255826267629638
0.0016379041129725783
0.005793511624312275
0.0003731403469542302
-0.0057669671100863224
0.0006231817369345434
-0.0018771129544735527
0.002967760912534229
-0.004867706501725985
-0.014092659675344838
0.006041620598222934
-0.014452093362655346
-0.005227058337108372
0.0011659110531644604
-0.006543902963635361
0.0027229076006702827
-0.0058187141747358655
0.0023482846030859757
0.00554348012528991
-0.013008338320012332
-0.00570268930008228
-0.009282753525175602
-0.003714847021591879
-0.003452377982270949
-0.0034327913048470887
0.0013828483656449285
0.005676203017327813
0.004738977962092815
-0.005481747942148693
0.0030328066400832354
-0.0023988202097031844
0.001838600684292612
-0.01632595298352633
0.0015657352156925079
0.006157250603650838
0.008067080081570838
-0.0034276969989848576
0.007559800660060864
-0.0015141109809118326
0.0017537188670311617
-0.003314153377654315
0.001441808233950718
0.005633917957999166
0.0011562857833435933
-0.0032210208219997337
0.0019864303117407963
-0.006153050778339478
0.0010284578301104296
0.018450483534908833
0.0009411583439103735
-0.007366550173073282
0.0022112681545740044
-0.003139987166176846
0.0027245662231258285
-0.0023173306184398066
0.001078904552532637
-0.0018453859533086765
0.0031931416190318345
0.00145129759737561
0.0006074273727250092
0.0001844090544750066
0.0009559739507325368
-0.003030877097717856
0.0038859490051041355
-0.005697699600666298
0.0013085244597519782
0.004449187967899104
0.004554493824188563
-0.0003004770898520641
0.0015159608908768877
-0.002969212106686816
0.00482340237957506
-0.005477402005900304
0.0015845126567835186
-0.002842498357666083
0.0051818976796421026
0.005508540383320875
0.0015109059607043532
0.00038502905951273833
0.005156120805976605
-0.00684100502326157
0.0012993529995338749
-0.002621487854787813
0.005428731505271215
-0.007689883128530544
0.0009570521594161529
-0.002389444964172166
0.005355276103373719
-0.0025490678467095865
0.0005000961903464365
-0.00030315684310303114
0.005664174555779048
0.0008859483317743189
5.65861424271602e-05
-0.001941958267157997
-0.0003810479427864253
-0.0058131952292384825
0.005996433142106491
-0.001376418889915958
-0.0013713263957779275
-0.008378089674807142
0.006325208954367788
-0.001513818167849595
-0.0033128584315923757
-0.0038181488098022335
0.006422171393330758
0.002309246505145844
-0.005879776779339737
0.00016927723050711043
-0.005224205971591973
0.005693144347819299
0.007494602629499135
-0.0013694841094454998
0.008730569505740974
0.0053724059998837
-0.0014348878133611017
0.0015142191963498622
0.01007857764926929
-0.004775664917258481
0.01078997260752297
-0.0017006351697053874
0.010250376783669655
0.0027325288781167877
0.007891814917402427
-0.008611213290419412
0.0036431248067026966
-0.0037991349677724013
-0.0007842136932698188
0.00045411172923088975
-0.003068517577741684
0.001142524827685601
-0.0005540105945181662
0.005388581731123811
-0.00488783662788251
-0.009648933882477484
0.00010709816665920412
0.0007484354657985943
-0.0043925684523376625
0.0010548842755887541
0.001959840309578846
-0.010859572726240694
-0.0032714517453434635
0.0009867673058336327
-0.0005677229683678777
0.0013063210143337528
-0.003409468373481997
0.004790267457808305
0.002962883613242182
-0.012657946411376408
-0.004245473030300885
0.0015786580171871303
0.0014302522600187762
0.001041510165020247
-0.0027794075789060292
0.0017268830647773539
0.0048835408352423835
0.000982528883906724
-0.0042500321981892445
0.001086447882070446
-0.0006154804194890183
0.004140063079867992
-0.003566390596049033
-0.014138205778558897
0.005123830189730746
-0.014475476635513972
-0.003729909245309728
0.0012889609724633473
-0.006401369517076996
0.0026559956922360332
-0.002813789900863455
0.0033856536325609452
0.004883545592695583
-0.012987049590960892
-0.004095717775717325
-0.009203421241985834
-0.003548185531695759
-0.0033149459935912806
-0.003505043036318951
0.001489043915697366
0.004734350767916124
0.004657026639372212
-0.003873638401548264
0.0032095427613770423
0.00010990777760345258
0.002620944309704167
-0.0021598589278817907
0.001654524066549031
0.005135066091230096
0.008098495381619348
-0.0035111200533280615
0.0077083062470571385
-0.0016054360448130222
0.0018301103122411444
-0.003415609447365978
0.0019083596750456434
0.004664228985782316
0.0012276619730255288
-0.0033329457684531764
0.002043721875233649
-0.005969348266746732
0.0007429659609139509
0.002323880363286462
0.0002843722092528102
-0.007397476571927981
0.002248140357880347
-0.003256156496591395
0.00021331615446606593
-0.0005452489513590435
0.0031698018277018223
0.0004882986398699069
-0.0005413002968495571
-0.0009362803753703286
-0.0003546524344197329
-0.0031520539816677993
0.0038486856080878987
0.001097275184104615
-8.612368012544467e-05
0.0010041353105234257
0.004514003150184952
-4.386892676836646e-05
0.0001695454500117676
-0.0031040647733421305
0.0047816764736283044
-0.005369241797347544
0.0003728022532848793
-0.002998807001046182
0.0051481862573753345
0.004555746660598613
0.0004817308764050632
-0.000476957615225408
0.0051243307098368706
-0.006726303047025527
0.0004726956795672742
-0.0027998274060067143
0.005403068708335575
-0.007728432888176776
0.00032682882310461304
-0.002623125988811127
0.005330326040283022
-0.0025237703670542965
4.4043366346215826e-05
-0.0010243086679874757
0.005641535138327218
-0.00025461626094274917
-0.00024838167445581785
-0.0022226545580188934
-0.0005872729982930072
-0.003036558015704001
0.005977767209439318
-0.0017978728666696372
-0.0014312353724004623
-0.008434646091182383
0.006312005636902072
0.0005485983528539485
-0.0033821118506623575
-0.003582997987141129
0.006416160957137955
0.0008282637824130525
-0.006057042010776595
0.00037739779683558923
-0.005487170254689871
0.000981100815426485
0.007497955662346029
-0.00026104428981499117
0.008730636455543846
0.0008095591954268643
-0.0016880027479977645
0.0007806338993821727
0.010062739499881351
-0.0008649424578450591
0.010752314313250494
-0.0009018492298476501
0.010178332823011876
0.002733851816614247
0.007764521989700895
-0.008677456401176611
0.00345074516954771
-0.0038562704097598846
0.000334993102530183
0.0006329337949695174
-0.001812032693571657