# vtk DataFile Version 1.0
GRUMMP topologically 2D mesh
ASCII

DATASET UNSTRUCTURED_GRID
POINTS 4142 float
  0.9902132100051211  -0.0013897599745845   0.0000000000000000
  0.9878682672001325  -0.0017209544766007   0.0000000000000000
  0.9922830260938109  -0.0010965337451688   0.0000000000000000
  0.9852627687065505  -0.0020876945602550   0.0000000000000000
  0.9824126515147726  -0.0024873693035198   0.0000000000000000
  0.9941016532545700  -0.0008382294190312   0.0000000000000000
  0.9793229395886266  -0.0029189889321549   0.0000000000000000
  0.9759912936709813  -0.0033826574903297   0.0000000000000000
  0.9957253756688895  -0.0006072067599891   0.0000000000000000
  0.9724158418644283  -0.0038783672872607   0.0000000000000000
  0.9972114818934485  -0.0003956828894990   0.0000000000000000
  0.9685983419668763  -0.0044053177853816   0.0000000000000000
  0.9986172604849257  -0.0001958749290171   0.0000000000000000
  0.9645418982154840  -0.0049624143705746   0.0000000000000000
  0.9602493276520160  -0.0055486932126648   0.0000000000000000
  1.0000000000000000   0.0000000000000000   0.0000000000000000
  0.9557225436143375  -0.0061636003738353   0.0000000000000000
  0.9986172604763917   0.0001958749302285   0.0000000000000000
  0.0136778115501445  -0.0198442283865115   0.0000000000000000
  0.9509632892996972  -0.0068066585239019   0.0000000000000000
  0.0111799405480040  -0.0180409152078963   0.0000000000000000
  0.9972114818757430   0.0003956828920181   0.0000000000000000
  0.0164236219435115  -0.0216216850259729   0.0000000000000000
  0.9459737546847580  -0.0074771440326796   0.0000000000000000
  0.0194159763686392  -0.0233724637256901   0.0000000000000000
  0.0089312659290954  -0.0162123970812813   0.0000000000000000
  0.9957253756403164   0.0006072067640564   0.0000000000000000
  0.9353156997544615  -0.0088958032333210   0.0000000000000000
  0.0226532123065557  -0.0250954152174871   0.0000000000000000
  0.0261336316774566  -0.0267893559859237   0.0000000000000000
  0.0068429846519911  -0.0142695304151425   0.0000000000000000
  0.9237713702124288  -0.0104115615140689   0.0000000000000000
  0.0298554003449755  -0.0284531869488138   0.0000000000000000
  0.9941016532123735   0.0008382294250309   0.0000000000000000
  0.0050308200222286  -0.0123013782195995   0.0000000000000000
  0.0012596550434314  -0.0062543845982477   0.0000000000000000
  0.9113626015789812  -0.0120184565864932   0.0000000000000000
  0.0338165365583016  -0.0300859006297539   0.0000000000000000
  0.0005600587198625  -0.0041872521188657   0.0000000000000000
  0.0034956879705714  -0.0103096477045821   0.0000000000000000
  0.0380150486067802  -0.0316864834866382   0.0000000000000000
  0.0001400674572995  -0.0020989425108620   0.0000000000000000
  0.0424489169588349  -0.0332538061244847   0.0000000000000000
  0.8981160449036193  -0.0137076729882106   0.0000000000000000
  0.9922830260341767   0.0010965337536290   0.0000000000000000
  0.0022384105171692  -0.0082946477552229   0.0000000000000000
  0.0000000000000000  -0.0000000005380880   0.0000000000000000
  0.0471161050109934  -0.0347866680569130   0.0000000000000000
  0.8692172420003259  -0.0173025512123363   0.0000000000000000
  0.8840586048664243  -0.0154712341935952   0.0000000000000000
  0.8536242589802903  -0.0191927756559575   0.0000000000000000
  0.0520144653095357  -0.0362838744017245   0.0000000000000000
  0.9902132099234322   0.0013897599861408   0.0000000000000000
  0.0001400673054027   0.0020989413744649   0.0000000000000000
  0.0005600583994229   0.0041872509286527   0.0000000000000000
  0.0089312642537700   0.0162123956290166   0.0000000000000000
  0.0068429832427153   0.0142695290019493   0.0000000000000000
  0.0022384098100130   0.0082946464730838   0.0000000000000000
  0.0034956870455263   0.0103096463775504   0.0000000000000000
  0.0050308188630767   0.0123013768482443   0.0000000000000000
  0.0111799386902237   0.0180409137864515   0.0000000000000000
  0.8373107726191357  -0.0211334926288444   0.0000000000000000
  0.0624935355792051  -0.0391666954139108   0.0000000000000000
  0.9878682670932252   0.0017209544916756   0.0000000000000000
  0.0136778095139640   0.0198442269960848   0.0000000000000000
  0.8203090273240524  -0.0231167391866414   0.0000000000000000
  0.0738633143603066  -0.0418930499584099   0.0000000000000000
  0.8026551811301268  -0.0251343400368426   0.0000000000000000
  0.9852627685719384   0.0020876945791685   0.0000000000000000
  0.0861021386417074  -0.0444536409739349   0.0000000000000000
  0.7843840873894279  -0.0271778197795966   0.0000000000000000
  0.9824126513500548   0.0024873693265746   0.0000000000000000
  0.0991843265815398  -0.0468392532814141   0.0000000000000000
  0.0164236197329729   0.0216216836667636   0.0000000000000000
  0.7461418339277840  -0.0313078737465108   0.0000000000000000
  0.9793229393907722   0.0029189889597428   0.0000000000000000
  0.1130825286139299  -0.0490420520078216   0.0000000000000000
  0.7058944105034720  -0.0354399888107516   0.0000000000000000
  0.1277704618123611  -0.0510562827506626   0.0000000000000000
  0.1762568929815641  -0.0559042078350805   0.0000000000000000
  0.0194159739879911   0.0233724623981675   0.0000000000000000
  0.6639684116827792  -0.0395008026994765   0.0000000000000000
  0.1937838883744062  -0.0571083155282771   0.0000000000000000
  0.9759912934368556   0.0033826575228533   0.0000000000000000
  0.2119350336566717  -0.0581032139582273   0.0000000000000000
  0.1432165586985055  -0.0528747491799113   0.0000000000000000
  0.1593891568184451  -0.0544918670991958   0.0000000000000000
  0.0226532097601106   0.0250954139222151   0.0000000000000000
  0.6207078411914361  -0.0434191082996254   0.0000000000000000
  0.5764634620046084  -0.0471137377839725   0.0000000000000000
  0.9724158415910057   0.0038783673250912   0.0000000000000000
  0.2306739249637577  -0.0588890260835713   0.0000000000000000
  0.0261336289695199   0.0267893547234291   0.0000000000000000
  0.5315950381341085  -0.0505057454921963   0.0000000000000000
  0.4864703588817339  -0.0535094604401647   0.0000000000000000
  0.4414549182767121  -0.0560390634426787   0.0000000000000000
  0.9685983416513994   0.0044053178288238   0.0000000000000000
  0.2697570606452168  -0.0598365819607799   0.0000000000000000
  0.3969170552729402  -0.0580119076690758   0.0000000000000000
  0.0298553974799863   0.0284531857194991   0.0000000000000000
  0.9645418978552561   0.0049624144199126   0.0000000000000000
  0.3107174127482247  -0.0599745523566999   0.0000000000000000
  0.3532197168655907  -0.0593474025151865   0.0000000000000000
  0.9602493272443249   0.0055486932681955   0.0000000000000000
  0.0338165335406938   0.0300858994339835   0.0000000000000000
  0.0380150454409591   0.0316864823247920   0.0000000000000000
  0.9557225431564565   0.0061636004358678   0.0000000000000000
  0.0424489136491938   0.0332538049970267   0.0000000000000000
  0.0471161015618897   0.0347866669642923   0.0000000000000000
  0.9509632887889385   0.0068066585927330   0.0000000000000000
  0.9459737541185675   0.0074771441085412   0.0000000000000000
  0.0520144617255517   0.0362838733443521   0.0000000000000000
  0.9353156990700551   0.0088958033238094   0.0000000000000000
  0.0624935317401540   0.0391666944281135   0.0000000000000000
  0.0738633102849253   0.0418930490455120   0.0000000000000000
  0.9237713694002159   0.0104115616199952   0.0000000000000000
  0.0861021343485112   0.0444536401350998   0.0000000000000000
  0.9113626006299211   0.0120184567085017   0.0000000000000000
  0.0991843220904188   0.0468392525175462   0.0000000000000000
  0.8981160438094651   0.0137076731266115   0.0000000000000000
  0.1130825239435962   0.0490420513187447   0.0000000000000000
  0.8840586036192291   0.0154712343488011   0.0000000000000000
  0.1277704569818227   0.0510562821360933   0.0000000000000000
  0.8692172405930260   0.0173025513845012   0.0000000000000000
  0.1432165537277111   0.0528747486397878   0.0000000000000000
  0.8536242574066383   0.0191927758449732   0.0000000000000000
  0.1593891517258480   0.0544918666322352   0.0000000000000000
  0.8373107708732270   0.0211334928345504   0.0000000000000000
  0.1762568877862003   0.0559042074398506   0.0000000000000000
  0.8203090254010921   0.0231167394087162   0.0000000000000000
  0.1937838830953411   0.0571083152030304   0.0000000000000000
  0.2119350283118140   0.0581032137003017   0.0000000000000000
  0.8026551790260408   0.0251343402747870   0.0000000000000000
  0.2306739195716207   0.0588890258904683   0.0000000000000000
  0.7843840851007032   0.0271778200327233   0.0000000000000000
  0.2697570552113356   0.0598365818878674   0.0000000000000000
  0.7461418312636445   0.0313078740273454   0.0000000000000000
  0.3107174073396524   0.0599745523895525   0.0000000000000000
  0.3532197115457904   0.0593474026374948   0.0000000000000000
  0.7058944074605978   0.0354399891145804   0.0000000000000000
  0.6639684082655058   0.0395008030201497   0.0000000000000000
  0.3969170500997217   0.0580119078642495   0.0000000000000000
  0.6207078374111498   0.0434191086291270   0.0000000000000000
  0.5764634578798972   0.0471137381129498   0.0000000000000000
  0.5315950336908907   0.0505057458089039   0.0000000000000000
  0.4864703541532008   0.0535094607315534   0.0000000000000000
  0.4414549133024901   0.0560390636939180   0.0000000000000000
  0.9901595609719056  -0.0023783411927147   0.0000000000000000
  0.0326649145266362  -0.0334200843455863   0.0000000000000000
  0.9878329678703356  -0.0027145673674890   0.0000000000000000
  0.0733998606732272  -0.0440344159407381   0.0000000000000000
  0.9922372924577029  -0.0020726951087579   0.0000000000000000
  0.8846838814295012  -0.0208009306521702   0.0000000000000000
  0.9852539181750185  -0.0030832573491977   0.0000000000000000
  0.8205556230767344  -0.0253024477924150   0.0000000000000000
  0.9824277530968584  -0.0034836508822686   0.0000000000000000
 -0.0022154120548041  -0.0049277430541563   0.0000000000000000
[...]
POINT_DATA 4142
SCALARS continuity float
LOOKUP_TABLE default
-0.0006468423125160684
3.4322526154259214e-05
-0.0014087261006844858
0.0005393651148586079
0.0009383171684936666
-0.002715663495469672
0.0012232969783992432
0.0014592241558529784
-0.005242631100085452
0.0016864299097206397
0.00046624068459268536
0.0018441446617048923
0.006503968173424575
0.002022499973322415
0.002160256680351379
0.00010431540553042365
0.0022870826487458172
-0.002934556805978489
0.00782354931018746
0.002468175011301061
0.008696966559430086
0.00024057699992342677
0.006867865977993535
0.0025386575859065786
0.005951553106755414
0.0096590608065408
0.005620354669218959
0.002657599511130514
0.0051111210474079965
0.004391095314494825
0.01014497362356905
0.002628575330494829
0.003769038090787359
0.0033534068213384536
0.01038237098968672
0.00766076603662523
0.0025840041759566264
0.0032604854074950868
0.005633810653435093
0.010082444335535963
0.002876560803030535
0.0032427268106514683
0.002565686458090794
0.002562997602492195
0.001915801607994725
0.009167685908031286
0.000488157332433156
0.002628119362969658
0.0026953463273816465
0.0026437562129060415
0.00287894634315551
0.0017129104834556438
0.0012255075697489167
-0.0016822124076728596
-0.0056023141864821446
-0.010996895316689745
-0.011578648656598033
-0.009964586601861966
-0.01062273370871642
-0.011699435375039499
-0.010172573329606522
0.002891308802181392
0.0022400066228669725
0.0005628944425534064
-0.009192726098149123
0.0030304608897785707
0.001966776659881004
0.0029444494018629336
7.327995697421306e-05
0.002247932241142003
0.0031123332191037825
-0.0003344006153777457
0.0025521396706732545
-0.008147953982432359
0.0027394746934350568
-0.0006798419631477868
0.0027992453755758717
0.0029583500446366423
0.0029437108738751758
0.002637000037395523
-0.0071152461116263015
0.0027951113036866447
0.002285938049983834
-0.0009506335353873811
0.001680680863798852
0.0029512385124001402
0.002826826166358275
-0.0061389005607225215
0.002172565229803815
0.0010876280332799378
-0.0011761229669769464
-0.00021988226598547786
-0.0052587434502708134
-0.0005813561668687268
-0.002964199205717295
-0.005810273477952515
-0.0014006068311764486
-0.003843998440798595
-0.008287207440681815
-0.0044915912087377325
-0.0015821894785821298
-0.0076065466413240395
-0.009169832570462432
-0.0017606885987506975
-0.0038503962193347794
-0.003312866914176125
-0.001872472197496609
-0.002896704404671366
-0.0025832893604511467
-0.0019674807003338944
-0.0020992408327321047
-0.002184593880918099
-0.002231426153920669
-0.001872116336316092
-0.001772580853465585
-0.00226581902522566
-0.0018663296617066612
-0.002212942365064853
-0.002027152001199862
-0.0022516315980312305
-0.002187139348329452
-0.002248778234491587
-0.002287441782916777
-0.0024514768697796803
-0.002287244493684659
-0.002458806140786163
-0.0021826574957957636
-0.002710773532058182
-0.002026233892598788
-0.0026953589073711983
-0.0017048598271574979
-0.0009934714070735555
-0.0028290995664225324
0.0005719615131354169
-0.002742287165780723
0.004365710498663464
-0.00292429578725069
0.007813196884413566
0.009357485108111695
-0.0028750923150103096
-0.002814589423615425
0.008430969655237378
-0.0022502138897492136
-0.00112684784191968
0.0006064426964408145
0.0030305784153842183
0.005913143433404952
-0.00060526112701095
0.005644661674400299
0.00010979995588282288
0.0010624197425849959
-0.001165230370607273
0.0020997923672747693
0.0005901764609507917
0.0029728251517146423
0.0009861325480334745
0.004646116921326864
-0.0025823365266465395
-0.012071407659499519
0.0012682043562894478
0.00012390593791602404
0.0015085350805543454
0.0004971889252269132
-0.003580605288663556
0.008414584961412008
0.0017320507287077005
0.0013776275326527181
-0.003344345733728573
0.002157496732276018
0.0018854867298431827
0.0028359498584463187
-0.014529704687978704
0.004483976360523921
0.002062878376141357
-0.013467482454787056
0.002199580469045098
0.001546915812458389
0.0022324054881490626
0.001456040998088352
0.0007812845832160457
-7.111559275262716e-05
0.0005191012212591011
0.0012939480572264164
0.0011549695390070784
0.0023282476389504202
-0.014548003094576694
0.015835598958179067
0.0027756464581211045
0.00821772456402699
-0.012960760081714838
0.002506660745810487
0.005623590656258347
0.00937346967500355
-0.011511167860705761
0.005197552067621494
0.0034091918929778035
0.007122076400165659
-0.014876416830527742
0.0025687571050066024
0.004451748815628996
0.006125562924391262
-0.014480050703162106
0.010643172361112783
0.002323543863094546
0.0038315325782566005
-0.0066676565807825645
0.0026879024307734627
0.00048727917291112365
0.005252606513638031
-0.002891479551251325
0.004509096226329069
0.0015515426661677654
0.011702278729087329
0.0011096317364976192
0.002650091249636826
0.004708731861098725
0.0038799974572862944
0.0012308005116362828
0.003368411361251209
0.007475503434329747
0.012463720734109352
0.002819321129339209
0.010310260164659822
0.005363720753074163
0.0026018982127970765
0.0025833992448647753
0.0033734837947025594
0.0005506615823910808
0.007742372856016405
0.002637633456371832
0.012611602188983934
0.00457726588050519
0.0029840540244484466
0.0019366307815022435
0.004407577670054008
0.002666044733521807
0.002663500320094258
0.0005222779173764681
0.0025790585956323585
0.0016688406821237047
0.001666749814298802
0.011115180948956607
0.011935074323858217
0.002465173208776797
0.00044033122976025235
0.0018607978758167602
0.0026201101647111164
0.00033031987422420754
0.0027144977047885866
0.0025036254386050475
0.0026567390744192676
0.0024086830103363954
0.0028960011663096605
0.0021286671175115898
0.002001627190085183
0.002009347411460989
0.0012074112476965068
0.003858187074229918
-0.0030967724764127385
0.0026496368339485026
-0.0076126597928288815
0.0026548797386594766
-0.011561789301989218
0.0041316563692326705
-0.012818735377138435
0.012476077592047559
-0.012766623576466296
0.0014558583205453936
-0.013313947868693882
0.006712303388989913
-0.0137458600911792
0.006474059999156866
-0.010200795420111826
0.0033076788144452223
0.00291062866261134
0.0010577839690615052
0.002293998865123572
0.002518325284752805
0.000494332173990803
0.006879187413155896
-0.008881575835085708
0.009185359525538464
0.003045654430672973
-0.0020106107858609635
0.002054966509151006
0.013223017624648566
0.0029541246514642643
0.002259938225276666
2.664121228602607e-05
0.0028337932701891283
0.002331481188317463
-0.004178955177293633
0.0031344810139490964
0.004157151319870247
-0.00038088488283825726
0.001657789272980458
0.0026354642304884926
0.002560076018763625
-0.007649654143416117
-0.011430020550922545
0.002751488100863338
0.01335298681635341
-0.0007245334736493206
0.007284633434908052
0.0028760589514952046
0.0051959721256574255
0.0029721520729863167
-0.0108074459049214
0.0030137945420644196
0.006435263222986361
0.0026849589440209338
0.0016607950487441572
-0.006527494625453987
0.0025864618416518857
0.0028089505683138753
-0.00744960312739374
0.002325657738060396
0.006177128640489159
-0.000993941923173157
0.005645986660396648
0.0017032393007362853
0.012961085977877394
0.003013709716336311
-0.008507675326957235
0.0028834347516042066
0.00783540048882752
-0.005529694814101194
-4.11292912370886e-05
0.0021882854466449553
0.002457946419671925
0.0011002156562111042
-0.009983347417830794
-0.0012205849235093194
0.009326322266157238
-0.00016501623315827918
0.003643248667181487
-0.004667663639020529
0.0025954823500433525
-0.0005712391259094325
-0.011836601409239714
-0.0029542933321287817
0.011997897959151571
-0.005800674492935565
0.001603864866139952
-0.0014444032971001794
0.002392316112556002
-0.0038297197098539487
0.002665657047770114
-0.008277398482330528
0.010767237275498422
-0.00393408603923835
0.007802871260386998
-0.0016228970185816313
0.021911213824145046
-0.007595073945871317
0.0009694276798257687
-0.009160805189357111
0.002210572136988952
-0.0018024183496283003
0.000761092641173768
-0.003329498983908786
0.002085750690158649
-0.0028385594441039195
0.0005491766739692978
-0.0019115122511502518
0.0019509110402850967
-0.002458273499750081
0.0020171472289137495
-0.002197455521198966
-0.024911794438418195
-0.002003974225640035
-0.011982637901401775
-0.0021317003750821774
0.0017768381178047455
-0.0018544495588550063
0.001846781663218325
-0.002257183103629058
-0.0015546900287604132
-0.0015841961139158817
0.0028016806854848967
-0.0015387216280559673
0.0016308359767650865
-0.002287035704026624
0.004703098409662258
-0.001684500253253223
-0.0061056643730343675
-0.0022330121155797297
0.00022249639535157494
-0.0018863306638535614
0.0014112147946627985
-0.0022692974119648567
-0.002720190671613328
-0.0020764332608586007
0.0011835039323023226
-0.0022664462708740815
0.002708786824100575
-0.002200459182335131
-0.002194562277908102
-0.002467995553809384
0.005672129094521592
-0.002218117370176448
0.0009187848489625272
-0.0024754092717587987
0.0001527814251375424
-0.002126487356451318
0.0005526012693158085
-0.0027252366131511295
0.0064541253802337575
-0.001978492377926785
-0.0013804101526503788
-0.002710574995767114
0.00018355633005172307
-0.0016653558500526672
9.474417192996541e-05
-0.0009579945175553269
0.00225594149189973
-0.0028367559094337517
-0.0005227095197018976
0.0005889504926381976
0.0028874887794529632
-0.0027627927389489377
0.0023617680423380404
0.004390446074813119
0.0020838536227431215
-0.002933518603906898
0.003257167862975282
0.007832412924038606
-0.00018739557249474693
0.009371959466977029
0.0001636642532459189
-0.002886015725627485
0.008038567348884746
-0.0028258920021652506
-0.0029776352698085064
0.00843838988775267
0.000366998372438184
-0.0022597275488543647
-0.0032629079064304916
-0.0011316683895548942
0.0011596849573893456
0.0006037213694061115
0.00022061019672110996
0.0030313581949324674
-0.01178259894839933
0.005916892241574625
0.00437354701291437
0.0028806714232737984
0.0015117033050350546
4.991170792089544e-05
0.0023347909907321246
0.0013420191334479893
0.002345529069630757
0.003059604921442166
0.006245335486486661
-0.0003267667577691409
0.0037432383476327046
0.0016933992131173722
0.009146613834260275
-0.01045498316473712
0.003995920843901037
0.0026730985132462698
0.0023775494987554073
-0.000648808633464531
0.006414268020597557
0.0020075526652934793
0.006886486247214576
0.0028904497608260573
0.0010903689550923288
0.00222830836356327
0.0023703716417326193
0.002133643024411916
0.003403323859005301
-0.008797806905246114
0.009726526046687807
0.0027232243995562676
-0.0016157234980780084
0.0018442954303355295
0.00810975967462215
-0.0009032665423938166
0.0019882120726494672
0.0013000009776150667
0.009191499597254363
0.0023114054506076097
-0.002883905439118038
0.0022588043994493153
0.0023904400222392896
-0.007203302696710388
0.0018143177112003906
0.0020957280345828954
0.0029415793182318377
0.0010017245756305103
-0.00632023665169084
-0.001118354320859045
0.01024586229110929
-0.0005053100145535938
0.005835202648123568
-0.0057958076499185305
0.01003190836757947
-0.0006816267555218778
0.0025727453371236875
-0.0030822712507653826
0.002259459608818054
-0.00595241137352095
-0.006270802783392562
-0.001333987617988572
0.010542122056784895
-0.004108066448115812
0.0008997183754240478
-0.008459797311207383
0.003471799836863412
-0.004580423104108991
-0.005204935269779871
-0.0015071657158840916
0.01056559114164373
-0.007841799673629002
0.004838261003546404
-0.009377218925051112
0.0021873993230832915
-0.0016841628279812067
-0.005677857282652396
-0.003577838837739427
0.01070881044596155
-0.0027880045828170327
-0.00015330638626893898
-0.001794715104321793
0.003526221009561334
-0.0021610081645029914
-0.00619504072002994
-0.0016868238710753497
0.0019996267588301697
-0.0018921524518113225
0.0032476150683603934
-0.002026808193695387
0.0018750769242619832
-0.0012187155040430796
-0.006498947988196486
-0.002161028567992424
0.0017452562345407591
-0.000773657991444323
0.000851099386231628
-0.000640987793867275
-0.003613206896579139
-0.002194885806340078
0.002358633275347691
-0.0007621826587019122
0.0015738692953393132
-0.002149807675771274
0.005058071029681754
-0.0009901839939886058
-0.0024729573003908806
-0.002191187648630398
0.0027433816817455684
-0.0012338245240663343
0.0014361361296344715
-0.002192206546679211
-0.00029707738890578353
-0.0014272942393902955
-0.0026353020740328783
-0.0023958559320804884
0.000677430156153294
-0.0015215179346535297
0.0012236560436703278
-0.0024013700999123795
0.0015118006845655173
-0.0015029380955296325
0.0010120324783060098
-0.0026517325825495615
-0.0068597090235847525
-0.0014244395182219205
-0.0017273676729040058
-0.0026373842640869333
0.001077895703752859
-0.0011786041229020325
0.0007728646661271737
-0.0005408500803001941
0.0024972365572611946
-0.002764806463702962
0.0004436067927354295
0.0009368806248308033
0.004173155154289252
-0.002689353384853969
-0.0010489807734840634
0.004676840846191477
0.0011295688908973625
-0.0028571626238777176
4.216774591811928e-05
0.008078157734760033
-0.001529010656791771
0.009585525226962469
-0.0004678367431938172
-0.0028041692696553727
0.0023954864198791016
-0.0027402577681389837
0.001387063865568786
0.008621297663572627
0.0045931586448635184
-0.0021693020992695974
0.0004454411817436195
-0.0010343093806173937
0.00032633898658456276
0.0007138115373777149
-0.0004884745063873963
0.0031573966627476734
0.004587857386333024
0.0060693477255005235
-0.0011359494025751722
0.0020440981348654273
0.0024929598672225463
-0.0008528623402740618
-0.0004848992628853287
0.0055880670597394395
0.000631316863488556
-0.0015874191205163535
0.002705523717100903
0.007965089808011985
0.0008774484327201722
0.0017798783870655375
0.001062509559605137
0.007623204087989703
-0.01119112742035208
-0.0025403643293647766
0.00252875038499962
0.002061263920151593
0.0008913422571583697
0.0021059364400060456
-0.0007207198302370089
0.004069743559177995
0.0004783940029496794
-0.00396542859167818
0.0010317500055385582
0.005554819131737741
0.001077790778251004
0.0011128684494868643
-0.010250292872341514
0.007101480273098799
0.0018911108818570267
-0.0045444846453179776
0.0007778784543476998
0.006526781140495531
-0.0009217200721583717
-0.0001845112072822975
-0.0011917045778180857
0.0035387858858581507
-0.009024222893358141
-0.004406513601345277
-0.0009313978621717167
0.005680363303857121
-0.003367593403061958
0.004785288057968835
-0.006286941650190691
0.0018489470229118242
-0.001131199103577248
-0.004810671378942269
-0.00467413032673923
0.006014233202090037
-0.008852030804762805
0.0020480137768370556
-0.007649588355414008
0.010180288639894028
-0.0013005735239399398
-0.004904679143099872
-0.008338804633364477
0.0016563520742139512
-0.009826671983176492
0.0030338651204699645
-0.0014765723910636283
0.001532056878697125
-0.006240126290691055
-0.003368225784938913
-0.004910969096060887
0.0014092440931277538
-0.0015867402159115765
-0.00021622411672617869
-0.003710468544494619
-0.010820730978315216
-0.002663258743296456
0.0018494476315288313
-0.0016891009216574323
0.001240447758589783
-0.0018298918318100045
0.0019326530653822375
-0.0016311509845685621
0.0003882130915108331
-0.0019673864513254195
-0.002858763806295123
-0.0005569974566905541
0.005945779553384268
6.480337889185632e-05
0.0011196054675515674
-0.002010697265473111
-0.0016168381964543896
0.0002955026617784077
-0.0037566128002634036
-0.0019675887042517005
0.0008598078203773676
0.00026853942310292074
0.0009236312290746072
-0.0020173568192666555
0.0007631581077970912
0.00010470177770298697
0.0007364367419516933
-0.0020191332032125668
-0.0029064714611430056
-9.379380269594994e-05
-0.0016706792166106207
-0.0022253773949568
-1.3023210854397108e-05
-0.0002449312916482438
0.0005340081077439701
-0.0022317108651089246
0.0019816546405661524
-0.0003132497420246714
0.00025531225095175525
-0.0024844202683614197
0.0039877478227545666
-0.0003375407552669859
-0.0011686372060359014
-0.0024680779163679827
0.004341940904888158
-0.00020701172522240885
-9.543026494932324e-05
0.0003085234252336893
-0.0027410673024906122
-0.002596424254657837
-0.0005154752644152326
0.0016429484333889926
0.0018765098956900208
-0.002517270483960749
0.003089388063717507
0.005254951861047826
0.004622460401735571
-0.0026800155753300163
0.00021992914041785088
0.008582228326443807
0.0005748763416649734
0.010040193821440682
-0.0027337541605928634
-0.002621364364584868
0.00017194546777236523
-0.0025470921365850136
-0.00430846809044398
0.009015088494361079
0.0027665957966606074
-0.0019629355964858133
0.004763440758077951
-0.0008092941312921498
0.001946034048916864
0.0009664178400282268
-0.0015020763798213857
0.0034469091503590943
0.0020448667248928365
0.006405253066695261
0.001923511750576329
-0.0015324440494610108
3.890513800256708e-05
0.004209332956438908
-0.0002931689552459492
0.001332677863431013
-0.007381722176137254
0.0015374549490036003
0.0021604729443396487
-0.0022650061827220883
-0.00022382411521220655
0.004096696677203462
-0.0005169419279419095
-0.00168579561834827
0.0023644944438662436
0.0034091063818985573
-0.0005675470921819548
0.001541843164072561
-0.0005044282538297034
0.0027647624763786614
-0.007959713196396108
-0.0025741626450203436
0.0021703592160508857
0.0015479659890795066
-0.0005745901424023719
0.00016091028999936662
-0.00043059543847013415
0.0026153969628368
-0.0008352822291019596
-0.003838379334414133
-0.0005518480108511766
0.0034818481286010656
-0.0005360495777046393
-0.001710858802376476
-0.008484444794356746
0.0023536224305275985
0.001505227463972522
-0.004479422919722092
0.00035590963389087334
0.002260021161219441
-0.0006085218117063622
-0.0015306114891233877
-0.0023077019021271986
0.0028055614687520036
-0.008808918123658367
-0.004149554105747956
-0.0014030499555412795
0.0028913986127212595
-0.003907792869937144
0.004805646798708483
-0.006910146449970469
0.0013377839135801167
-0.0008070299352998068
-0.004713031832435201
-0.005603098240600565
0.002444919439977845
-0.009565544577579526
-0.00020770461758305936
-0.008844032718979501
0.003464410878223511
-0.0009677339584922694
-0.004815771871325242
-0.009181715975643703
0.001144662662993169
-0.010615867067375852
0.0027857665111300457
-0.0011393571791971288
0.0010256823940877006
-0.008548487170928494
-0.003002256914446027
-0.007934775641397622
0.0009104918512197258
-0.001246115709125303
-0.001543335473237565
-0.007045823049622263
-0.003219325449130935
-0.005931784148041075
0.001070409165171286
-0.0013554158685984805
0.0007505341949878721
-0.004443713976998459
-0.00161273060113958
-0.0016445583261071144
-0.002194937982053381
-0.0026703849828688263
0.005830703771238591
-0.0010995381244167845
0.0006602007699508706
-0.0016932825374039577
0.0002433318682495267
4.8214614906172485e-05
-0.002166895570724249
-0.001656966083416138
0.0011117796382529562
0.0007671652934623173
0.0004860078989003596
-0.001712408365590588
-0.0002870529440756632
0.0011363004464773402
0.0003347669076539609
-0.0017171302853559998
-0.0021054774914633797
0.0012739106878660897
-0.001382473623352863
-0.0019262060118833203
-0.0013603961066604613
0.0012970618169392462
0.00018822101122294345
-0.0019305205968853656
0.0011954435400198986
0.0012825259072739945
-2.434385112386911e-05
-0.0021854740332133324
0.003756895877475899
0.0012302453321407932
-0.0010373826332381335
-0.0021665465471776262
0.006241477521963504
0.00127418616550386
-0.00029081134934753325
0.0016526815392361575
0.0036959314291240566
-0.0022924860602397835
-0.0006041382995917698
0.002782664728452472
0.0010654339637925646
-0.00220685051090214
0.0017861860905276272
0.006201011548792886
0.004813495146601871
-0.0023572596883682734
0.0003080680897877739
0.009427938172560107
0.0009037801148371985
0.010828464197042122
-0.001219292572653261
-0.0022856271502013983
-0.002239714352613988
-0.0021913064700270963
-0.002352172563923429
0.009731212573637672
0.00591710436063942
-0.0015802733297019598
0.0029261283178818685
-0.000385808826462951
0.0019005592047454186
0.0014412529758874735
-0.001004592989481273
0.00399043957921653
0.0012253969026261098
0.007033351485101276
0.001411334707557417
-0.002051066365320683
0.00035985773117081047
-6.394723090145403e-05
0.0012988843819770617