# vtk DataFile Version 1.0
GRUMMP topologically 2D mesh
ASCII

DATASET UNSTRUCTURED_GRID
POINTS 4142 float
  0.9902132100051211  -0.0013897599745845   0.0000000000000000
  0.9878682672001325  -0.0017209544766007   0.0000000000000000
  0.9922830260938109  -0.0010965337451688   0.0000000000000000
  0.9852627687065505  -0.0020876945602550   0.0000000000000000
  0.9824126515147726  -0.0024873693035198   0.0000000000000000
  0.9941016532545700  -0.0008382294190312   0.0000000000000000
  0.9793229395886266  -0.0029189889321549   0.0000000000000000
  0.9759912936709813  -0.0033826574903297   0.0000000000000000
  0.9957253756688895  -0.0006072067599891   0.0000000000000000
  0.9724158418644283  -0.0038783672872607   0.0000000000000000
  0.9972114818934485  -0.0003956828894990   0.0000000000000000
  0.9685983419668763  -0.0044053177853816   0.0000000000000000
  0.9986172604849257  -0.0001958749290171   0.0000000000000000
  0.9645418982154840  -0.0049624143705746   0.0000000000000000
  0.9602493276520160  -0.0055486932126648   0.0000000000000000
  1.0000000000000000   0.0000000000000000   0.0000000000000000
  0.9557225436143375  -0.0061636003738353   0.0000000000000000
  0.9986172604763917   0.0001958749302285   0.0000000000000000
  0.0136778115501445  -0.0198442283865115   0.0000000000000000
  0.9509632892996972  -0.0068066585239019   0.0000000000000000
  0.0111799405480040  -0.0180409152078963   0.0000000000000000
  0.9972114818757430   0.0003956828920181   0.0000000000000000
  0.0164236219435115  -0.0216216850259729   0.0000000000000000
  0.9459737546847580  -0.0074771440326796   0.0000000000000000
  0.0194159763686392  -0.0233724637256901   0.0000000000000000
  0.0089312659290954  -0.0162123970812813   0.0000000000000000
  0.9957253756403164   0.0006072067640564   0.0000000000000000
  0.9353156997544615  -0.0088958032333210   0.0000000000000000
  0.0226532123065557  -0.0250954152174871   0.0000000000000000
  0.0261336316774566  -0.0267893559859237   0.0000000000000000
  0.0068429846519911  -0.0142695304151425   0.0000000000000000
  0.9237713702124288  -0.0104115615140689   0.0000000000000000
  0.0298554003449755  -0.0284531869488138   0.0000000000000000
  0.9941016532123735   0.0008382294250309   0.0000000000000000
  0.0050308200222286  -0.0123013782195995   0.0000000000000000
  0.0012596550434314  -0.0062543845982477   0.0000000000000000
  0.9113626015789812  -0.0120184565864932   0.0000000000000000
  0.0338165365583016  -0.0300859006297539   0.0000000000000000
  0.0005600587198625  -0.0041872521188657   0.0000000000000000
  0.0034956879705714  -0.0103096477045821   0.0000000000000000
  0.0380150486067802  -0.0316864834866382   0.0000000000000000
  0.0001400674572995  -0.0020989425108620   0.0000000000000000
  0.0424489169588349  -0.0332538061244847   0.0000000000000000
  0.8981160449036193  -0.0137076729882106   0.0000000000000000
  0.9922830260341767   0.0010965337536290   0.0000000000000000
  0.0022384105171692  -0.0082946477552229   0.0000000000000000
  0.0000000000000000  -0.0000000005380880   0.0000000000000000
  0.0471161050109934  -0.0347866680569130   0.0000000000000000
  0.8692172420003259  -0.0173025512123363   0.0000000000000000
  0.8840586048664243  -0.0154712341935952   0.0000000000000000
  0.8536242589802903  -0.0191927756559575   0.0000000000000000
  0.0520144653095357  -0.0362838744017245   0.0000000000000000
  0.9902132099234322   0.0013897599861408   0.0000000000000000
  0.0001400673054027   0.0020989413744649   0.0000000000000000
  0.0005600583994229   0.0041872509286527   0.0000000000000000
  0.0089312642537700   0.0162123956290166   0.0000000000000000
  0.0068429832427153   0.0142695290019493   0.0000000000000000
  0.0022384098100130   0.0082946464730838   0.0000000000000000
  0.0034956870455263   0.0103096463775504   0.0000000000000000
  0.0050308188630767   0.0123013768482443   0.0000000000000000
  0.0111799386902237   0.0180409137864515   0.0000000000000000
  0.8373107726191357  -0.0211334926288444   0.0000000000000000
  0.0624935355792051  -0.0391666954139108   0.0000000000000000
  0.9878682670932252   0.0017209544916756   0.0000000000000000
  0.0136778095139640   0.0198442269960848   0.0000000000000000
  0.8203090273240524  -0.0231167391866414   0.0000000000000000
  0.0738633143603066  -0.0418930499584099   0.0000000000000000
  0.8026551811301268  -0.0251343400368426   0.0000000000000000
  0.9852627685719384   0.0020876945791685   0.0000000000000000
  0.0861021386417074  -0.0444536409739349   0.0000000000000000
  0.7843840873894279  -0.0271778197795966   0.0000000000000000
  0.9824126513500548   0.0024873693265746   0.0000000000000000
  0.0991843265815398  -0.0468392532814141   0.0000000000000000
  0.0164236197329729   0.0216216836667636   0.0000000000000000
  0.7461418339277840  -0.0313078737465108   0.0000000000000000
  0.9793229393907722   0.0029189889597428   0.0000000000000000
  0.1130825286139299  -0.0490420520078216   0.0000000000000000
  0.7058944105034720  -0.0354399888107516   0.0000000000000000
  0.1277704618123611  -0.0510562827506626   0.0000000000000000
  0.1762568929815641  -0.0559042078350805   0.0000000000000000
  0.0194159739879911   0.0233724623981675   0.0000000000000000
  0.6639684116827792  -0.0395008026994765   0.0000000000000000
  0.1937838883744062  -0.0571083155282771   0.0000000000000000
  0.9759912934368556   0.0033826575228533   0.0000000000000000
  0.2119350336566717  -0.0581032139582273   0.0000000000000000
  0.1432165586985055  -0.0528747491799113   0.0000000000000000
  0.1593891568184451  -0.0544918670991958   0.0000000000000000
  0.0226532097601106   0.0250954139222151   0.0000000000000000
  0.6207078411914361  -0.0434191082996254   0.0000000000000000
  0.5764634620046084  -0.0471137377839725   0.0000000000000000
  0.9724158415910057   0.0038783673250912   0.0000000000000000
  0.2306739249637577  -0.0588890260835713   0.0000000000000000
  0.0261336289695199   0.0267893547234291   0.0000000000000000
  0.5315950381341085  -0.0505057454921963   0.0000000000000000
  0.4864703588817339  -0.0535094604401647   0.0000000000000000
  0.4414549182767121  -0.0560390634426787   0.0000000000000000
  0.9685983416513994   0.0044053178288238   0.0000000000000000
  0.2697570606452168  -0.0598365819607799   0.0000000000000000
  0.3969170552729402  -0.0580119076690758   0.0000000000000000
  0.0298553974799863   0.0284531857194991   0.0000000000000000
  0.9645418978552561   0.0049624144199126   0.0000000000000000
  0.3107174127482247  -0.0599745523566999   0.0000000000000000
  0.3532197168655907  -0.0593474025151865   0.0000000000000000
  0.9602493272443249   0.0055486932681955   0.0000000000000000
  0.0338165335406938   0.0300858994339835   0.0000000000000000
  0.0380150454409591   0.0316864823247920   0.0000000000000000
  0.9557225431564565   0.0061636004358678   0.0000000000000000
  0.0424489136491938   0.0332538049970267   0.0000000000000000
  0.0471161015618897   0.0347866669642923   0.0000000000000000
  0.9509632887889385   0.0068066585927330   0.0000000000000000
  0.9459737541185675   0.0074771441085412   0.0000000000000000
  0.0520144617255517   0.0362838733443521   0.0000000000000000
  0.9353156990700551   0.0088958033238094   0.0000000000000000
  0.0624935317401540   0.0391666944281135   0.0000000000000000
  0.0738633102849253   0.0418930490455120   0.0000000000000000
  0.9237713694002159   0.0104115616199952   0.0000000000000000
  0.0861021343485112   0.0444536401350998   0.0000000000000000
  0.9113626006299211   0.0120184567085017   0.0000000000000000
  0.0991843220904188   0.0468392525175462   0.0000000000000000
  0.8981160438094651   0.0137076731266115   0.0000000000000000
  0.1130825239435962   0.0490420513187447   0.0000000000000000
  0.8840586036192291   0.0154712343488011   0.0000000000000000
  0.1277704569818227   0.0510562821360933   0.0000000000000000
  0.8692172405930260   0.0173025513845012   0.0000000000000000
  0.1432165537277111   0.0528747486397878   0.0000000000000000
  0.8536242574066383   0.0191927758449732   0.0000000000000000
  0.1593891517258480   0.0544918666322352   0.0000000000000000
  0.8373107708732270   0.0211334928345504   0.0000000000000000
  0.1762568877862003   0.0559042074398506   0.0000000000000000
  0.8203090254010921   0.0231167394087162   0.0000000000000000
  0.1937838830953411   0.0571083152030304   0.0000000000000000
  0.2119350283118140   0.0581032137003017   0.0000000000000000
  0.8026551790260408   0.0251343402747870   0.0000000000000000
  0.2306739195716207   0.0588890258904683   0.0000000000000000
  0.7843840851007032   0.0271778200327233   0.0000000000000000
  0.2697570552113356   0.0598365818878674   0.0000000000000000
  0.7461418312636445   0.0313078740273454   0.0000000000000000
  0.3107174073396524   0.0599745523895525   0.0000000000000000
  0.3532197115457904   0.0593474026374948   0.0000000000000000
  0.7058944074605978   0.0354399891145804   0.0000000000000000
  0.6639684082655058   0.0395008030201497   0.0000000000000000
  0.3969170500997217   0.0580119078642495   0.0000000000000000
  0.6207078374111498   0.0434191086291270   0.0000000000000000
  0.5764634578798972   0.0471137381129498   0.0000000000000000
  0.5315950336908907   0.0505057458089039   0.0000000000000000
  0.4864703541532008   0.0535094607315534   0.0000000000000000
  0.4414549133024901   0.0560390636939180   0.0000000000000000
  0.9901595609719056  -0.0023783411927147   0.0000000000000000
  0.0326649145266362  -0.0334200843455863   0.0000000000000000
  0.9878329678703356  -0.0027145673674890   0.0000000000000000
  0.0733998606732272  -0.0440344159407381   0.0000000000000000
  0.9922372924577029  -0.0020726951087579   0.0000000000000000
  0.8846838814295012  -0.0208009306521702   0.0000000000000000
  0.9852539181750185  -0.0030832573491977   0.0000000000000000
  0.8205556230767344  -0.0253024477924150   0.0000000000000000
  0.9824277530968584  -0.0034836508822686   0.0000000000000000
 -0.0022154120548041  -0.0049277430541563   0.0000000000000000
[...]
POINT_DATA 4142
SCALARS continuity float
LOOKUP_TABLE default
-0.00023569626769943803
-0.00020833262504209554
-0.00024616055106588134
-0.0001951339432204294
-0.00018597048496712541
-0.00046847140711780836
-0.00018595270635022782
-0.00018625690477911867
-0.0003989707358353631
-0.00018739987508220848
-0.0004256091046920606
-0.00019764960704663506
-0.02497053321755995
-0.00020005855756901415
-0.00020802886830798557
0.00016089049408743466
-0.00021113776164599334
0.026071949352348935
0.005053953988685331
-0.0002006149963073418
0.005192968685439409
0.00045638894285870524
0.004851239412326813
-0.000208324644315196
0.004604748805493006
0.005314435056641349
0.00042741988862768154
-0.00019752238176859956
0.004329443258691659
0.004036023515003828
0.0052682766233653556
-0.00017003762569607213
0.0037318223312888697
0.0005162873199111742
0.005138231137069024
0.003561708852071261
-0.0001640954362615323
0.0034241160988029862
0.002551860416406075
0.00483287374201728
0.003126616956708129
0.0013709652562871647
0.0028403729332062456
-0.00014567358620677304
0.00028397346133540084
0.004319532471778041
-3.8745574965668856e-05
0.0025914020479411584
-0.0001107368055952478
-0.00012439594542067801
-0.0001143394566500843
0.0022330776943646036
0.000279848410272568
-0.0018459457094745476
-0.001897691670918143
-0.00543813191449011
-0.005413052186977569
-0.0050889836525242075
-0.004383973075306419
-0.005145809754975939
-0.005305732001913054
-8.38948303790348e-05
0.0018183472053669453
0.00025750529119027095
-0.005138090876721509
-0.000115083324383874
0.001281659920092152
-5.0771892538530536e-05
0.00024795661452154267
0.0008527324281632817
-1.3149304152471759e-05
0.00023923212783239688
0.0005193377757011855
-0.004907894202332679
7.612586757249856e-05
0.00023336952010237754
0.00027730260544936094
0.00014062783317900633
0.00011915725298879355
0.00013091819821625688
-0.004636559351786259
0.00030687265643511674
0.0002882480247150826
0.00023179430280238005
0.0005323419633872422
4.513353955923307e-05
5.058122863104344e-05
-0.004341010742934795
0.0006278323494430354
0.0010902758618756697
0.0002355818490811676
0.0009209437031748572
-0.004029146891349149
0.001662850726724716
0.0022854540176209166
0.0028388688780225193
0.00023535977932442716
0.0016522167561422692
0.0031416356794002256
-0.003710635628129609
0.000237577262899939
0.0024765842607846326
0.003030535465298842
0.0002341598639259517
-0.0033909728544772484
-0.003082736261253432
0.00024429580966302055
-0.002788437384910491
-0.0025151173986540836
0.0002512700656995326
0.0002446758272323126
-0.002183912964651595
0.00024453346364305105
-0.0017221165840043487
-0.001197423567086498
0.00020265339588305595
-0.0007580184239554769
0.00019831278170251188
-0.00041671965077047556
0.00017789120940899688
-0.00016985611346075617
0.000169494926750761
-9.46585503200843e-06
0.00016497925858994646
6.491266441655617e-05
0.0001387793758235499
5.902543128361235e-05
0.00015820102558668586
-2.2123629444203863e-05
0.00011358570909500651
-0.0001787387683904476
-0.00041206977541697926
0.00016791672396292528
-0.0008203829722051209
2.4902713057034106e-05
-0.0015460414163883695
-4.1411005253923057e-05
-0.002404300117682377
-0.002970538303498073
-0.00010842022759240802
-0.00026675376380260856
-0.003088653866399944
-0.0005794837910071827
-0.001041775712102339
-0.0016170305325486649
-0.0022386619846509427
-0.002788715620483399
-0.0002530203455858114
0.003383744319062185
-0.0002155253144404696
0.0014222416416656096
-0.00023868986214231472
-7.870651432248436e-05
-0.00020192659290049823
-0.00011025563992399741
-0.00019127906682409702
0.0015785747295087881
-0.00046309453432033103
-0.004761341896493953
-0.0001904670471830068
-0.0001678795858904688
-0.0001905049919997907
0.00024821087046337126
0.00014482465146738809
0.0033925142019150963
-0.00019064921830143185
0.001974377347675457
-0.0005086448450306524
-6.361111920730479e-05
-0.00020037924169241965
-7.96549697333262e-05
0.007345795806205388
0.0031815653421619398
-0.00020216236198545797
-0.004776487446372996
-0.00020984824205493962
0.00016763318927686576
-0.001068586608657934
0.0014650606067503674
0.001197271077032569
0.00035551674224398676
9.931202851672614e-05
-0.00012985584068696997
-0.0009676615890317425
-0.00021309399437813005
-0.004110688782165402
-0.007440484853016206
0.0007727499086760766
0.00529312487436607
-0.003409117305607795
-0.0002031884579537177
0.002647094428444929
0.005421640756960964
-0.003269740530429023
0.0006702719170656281
0.002971321519887657
0.0050817617921716084
-0.004522727234711297
-0.00020960499625104873
0.0019968467741433658
0.004815752280696831
-0.004710689990368897
0.00548024019227694
-0.00012781391469735188
-0.00014279763361130183
-0.0019427314474262725
-0.00020043322617621697
-0.00016363314557348225
0.004514758469054865
-0.0013048034612919924
0.004195219239254796
0.0002342508176533309
0.005372549259761097
0.0002721425005808772
-0.0001729478529494118
0.0024836614736492815
0.003864536080518703
0.0023839291084775333
0.0005224379307022234
0.0029129340510020327
0.00512015441170356
-0.00011046039837858176
0.0032269957552196428
0.0026870356038761673
-0.0001673425308282865
-0.00012087698400703877
0.0035331480182402854
-0.0001523938316611996
0.002244420090634323
-0.00010721675363197753
0.004677678039122071
0.0022476198270391873
0.0032149410710609243
0.002750686764451957
0.0011392306659082747
0.002787747254493575
0.002911391220599502
-0.00013705102082902518
-0.00014917058458501227
0.00020919929784662781
0.0002766317493285539
0.0032277472448193267
0.004044162537821898
-9.247763521529404e-05
-6.872762057388114e-05
0.0002639242066863139
0.002647154163050743
-0.0001668726235283177
-0.0001141499455633435
-0.0001419915388679167
-0.0001276949170790536
-0.00010639411193149069
-0.00011753680791054822
0.002992028789647196
0.0022680515661692674
-0.00010048671055477761
0.00029893768736649016
0.0008828230657274673
-0.0015644509574771412
-9.524916096507696e-05
-0.002253222272560827
0.0032668813280519087
-0.005568956905213802
0.0017595711460823365
-0.0054697444398712335
0.0037681319373266747
-0.004209925826181751
0.002466355597015101
-0.004250479464230152
0.001760930799649287
-0.00505756612607924
0.0027653204264095482
-0.0055005696462485845
0.0035444621355846043
-8.716495279347371e-05
0.00025032012983289455
0.0018416123446602696
-0.00016003885280626833
0.0002654867959901552
0.002412693158669577
-0.00534255059405615
0.0025561456118673356
-0.00011825274960452307
-0.0011865694508099293
0.0012928313354651757
0.004176981033584419
-5.55094220908726e-05
0.0006804005549232661
0.0002550588945187839
0.0003936496072432117
0.0008531059999824472
-0.0018333217932962483
-1.4509195930242645e-05
0.003820882868713691
0.0002448437496351887
0.00012209984335791502
0.0005124044411769604
-0.0001652418462673148
-0.0051021120519945985
-0.004144454504837093
7.229053597284137e-05
0.004457865722543029
0.00023813817396994727
0.0029139737668934765
0.0002654923843761067
0.004078888321947129
0.00013741541605557053
-0.004008568020069347
0.00010481133341782213
0.004308640888453221
0.00011429735964495675
-1.089984702262545e-05
-0.004811442122281784
-0.00019185400802123904
0.0003040609439772619
-0.0029173898496339915
0.00027264063368504475
0.00037598201763703535
0.00023597057031816336
0.0031560157834546344
0.0005199664911580946
0.0046449674775516205
2.9250571928757547e-05
-0.0031527496541863408
3.396548945703896e-05
0.004500344784712876
-0.0044918252194002285
-0.0001641404265047508
0.000624744881094778
-0.00020060363286820992
0.0010873254367319133
-0.0036873082584834562
0.0002390682729766884
0.00464100572101755
0.0009028452244667077
0.0014256634389548401
-0.004155150884842844
0.0005237936565744789
0.0016601006194830457
-0.004185549142529103
0.002282515597248116
0.004710926890398713
0.002835817830159219
-2.8709744624404646e-05
0.00023812078006690956
-0.0001934151989771108
0.0016428359915606932
-6.368892462536888e-05
0.003137847707591093
0.004716269995544667
-0.0038122528548933856
0.003059163279595507
0.000239870416799144
0.0028777181032726804
0.002469708236990057
0.0021153401479922095
0.0030256707636969076
-0.0002033502383384225
0.00023647529053176484
3.218911797363014e-05
-0.003471035805509226
-0.0001999869706450915
-0.0031456595452804322
0.00022947092698530445
0.00024654259281072465
-0.0001920989994850643
-0.002835960729118468
-0.00011856823849052866
-0.002554888135088199
-0.0031448673477400004
0.00025430893900349987
-0.0041687725866105495
0.0002463320649434448
-0.0001906881515241086
-0.0021909824195100324
-9.517441754786741e-06
0.00024772800893137296
-0.0004527262476470759
-0.0017307815930585925
-9.363543461243143e-05
-0.0011947544514453292
-0.0001811752904282509
0.0002059569228222908
0.002104213744478748
-0.0007470230522512342
-0.000370751814088572
0.0002019677625959774
0.0015875970511432331
-0.0003999985740068696
-0.0001806000906422645
0.00018139569843626455
0.0010396359844894738
-0.00014989197530331002
-0.00018034226127775
0.00017319436101304666
-2.9425514092869058e-05
1.202975869260352e-05
-0.00034868020326890803
0.0001684439444777097
0.003502104802034164
8.701715786647233e-05
-0.00018006711517570096
0.00014225673829718064
0.00022309287070197434
8.101209831180933e-05
-0.00018871144467030838
0.0001616296855524583
0.00221602556739996
-8.204009268759904e-07
-0.00022624657261126278
0.00011709671634283134
0.0011477421596174022
-0.0001592262032834986
-0.0001986468292528699
-0.000396584254008789
0.0002584316498473267
0.0001730647410494389
-0.00022681427165617896
-0.0007984633473298984
1.2632502581045183e-05
2.6380239160166794e-05
-0.0003800698523721241
-0.0015343884949980237
0.002386875255294187
-3.7046438851257564e-05
0.00017589586592672686
-0.0023957540671109964
0.00021459586092990442
-0.0029642016322651062
7.123612243398684e-05
-0.00010486573556740207
0.003208078405004491
-0.0002633575931169922
-4.173531910106628e-05
-0.003083683548125194
0.0007878790775838232
-0.0005761274957989483
2.8541114684791205e-05
-0.0010384213291714398
0.00017251312481456892
-0.001613662570828785
0.0013132640466371613
-0.002235126887416742
-0.004101324487918724
-0.002784826380907955
0.0001571768588934414
-4.694910215812607e-05
-5.2472950325080946e-05
0.00024123803904724215
-0.0001455495027699009
0.0009729812575622638
-6.49689905885801e-05
-6.314213311080272e-06
0.0023033749634482877
0.00023286757903346437
0.0017408332324823227
0.000618133024714311
0.003742364372923756
-0.004661512601181879
0.002402239598253367
8.230722467799166e-05
0.00030200991784631024
0.00022731580350052153
0.0025197982946158484
0.00035620811247333945
0.00357529330726986
0.00014889067031382874
0.00021368634361737917
0.00018100231251958244
-0.00015001467257563244
0.00015646364045402724
0.002246772074922834
-0.004500801322266846
0.003968232115543571
0.0003175491646211028
-0.0010810670834057688
0.00030620685379337503
0.0037459726125726144
0.0002259541409295198
0.0005981456000689824
0.0005465692082496957
0.003891207557581694
9.248058850455341e-05
-0.00170411537319461
8.576170608455149e-05
-0.00017571887109017615
-0.004290638549731057
5.857908924893547e-05
0.0006411006675020293
7.822705503014354e-05
0.0011067980533866642
-0.0038781558804076594
0.00022982895576743528
0.004101834150188208
0.0009277661819575186
0.0026640638977804294
-0.004043412288793282
0.004009445072687916
0.0016832183315358168
5.175483883489329e-05
0.0023097541560098468
-0.00018383500266696954
0.0028665707116819253
-0.003756193375826764
0.00022908115604707683
0.004096826031236918
0.0016686438430766064
8.406201496213745e-05
0.0031716098061066967
0.00019079394974657764
-0.003772483861897637
-0.002640350508046904
0.00023147966136193216
0.004144689517687671
0.002501097501604899
0.0029485945550537076
0.003060113811557204
-0.0001756635543203955
0.00022761540452083235
-0.0029983626677972113
-0.0034862498159241185
0.004145505296952985
-0.003199194095625234
-0.00015834701854048748
0.00023742797750025464
-0.001194872678345847
-0.002918437529366691
-0.003463372943629962
-0.0026580534587944296
-0.00018553613922528273
0.0002447008844588596
0.0012865327432349117
0.00023702510575882255
-0.0001818225752779888
-0.0023062577926106073
-0.0038965907476929207
0.0002392671478350813
-0.00017370890901127777
-0.001862264994928852
6.048448057976455e-05
-0.0013239864772216405
0.0011364209725988296
0.0001983747395852034
-3.150811336667634e-05
-0.0008666781343933306
-0.00017287518469835434
0.00019491113140407214
0.002818232381793675
-0.0005052337620440106
-0.00011993444144599529
0.00017466639173558928
0.002148869946789636
-0.00023967652890623971
-0.00016265798605505632
0.0001664063007386399
0.00018220842567856355
-6.314182718268698e-05
-5.8324353037755875e-05
0.0001617247160126451
0.000197770446768375
2.492340416003695e-05
-0.0001624776481445388
0.00013536437965883347
-7.174706416408326e-05
3.0361305922649358e-05
-0.00016226248489815476
0.00015449746798233712
-0.0038444681750353774
-4.1845950898503537e-05
-0.00025546695430206606
0.00010892403497059391
9.148520683008139e-05
-0.00019164864047242061
-0.00016139536808322348
-0.00042168344642600164
-6.022753563478575e-05
0.00016411773405646034
-0.00016987774693666397
-0.0008223351537647868
0.0019228675220155946
1.8058138184175296e-05
-0.00019395945387211278
-0.001559343011709304
0.001699250316217143
-4.681847320974289e-05
-0.00017895979389312915
-0.0024268397176265403
0.001997764425092125
-0.002998419693533317
-0.00020295514548335908
-0.00011627547309276171
6.343547373331376e-06
-0.00027702045575594844
-0.00010499180165664958
-0.003117245027314732
0.0033076027103658935
-0.000592301025981601
6.899463531846763e-05
-0.001057805345305138
0.00019319453922590668
-0.001636679940604331
0.00024349325053946638
-0.002262265116925539
0.002051201787506749
-0.002815603619051134
0.0005243006824370161
-0.0001225983768133523
0.00010434143570515675
0.0021603301453080406
0.00020920491764048852
0.0037252190375287545
0.0005119577363495817
-0.0009765617719088186
0.00017547863860326162
0.0033557276017617864
0.000317866075725336
0.0005101047666005588
0.0002328686980449658
0.003495895890210707
-0.003997141363197156
-0.0015746543654933845
0.0003492146289764799
-0.00014779261313899137
0.0003665025271854482
-2.9663755797710624e-05
0.00020796038427092168
0.00024134262183486525
0.0005948894852015765
-0.003724257818183816
0.00020822292752042045
0.003843421447865881
0.00018110603289451494
0.00255842943245096
-0.0038632425319832797
0.0036290768139507035
0.0006787689458557644
-0.003573408529107715
0.001151672228874932
0.0037455464316838464
0.0002124193683796218
0.0002539418083992599
0.0009671115633329881
0.0003012887478919279
-0.0037031328854570194
-0.0024006270672748283
0.0017360630394443691
0.0038663050305855207
0.0023700636152164606
0.0026995690503401767
0.0029323772299340656
-0.00014579699796991383
0.00021166815004434645
-0.0028308490793180303
0.0017097619699035277
0.003829529434256225
0.003238696044222974
0.0008516583411879583
-0.003520094354486511
0.0004965784221467178
0.00021415408034629308
-0.003272905037711421
0.0025535070035676536
-0.00015596181457709998
0.0031231911226506336
0.0011323061110778884
0.00021001527245191118
-0.0001520190605307356
-0.0033184013872700215
-0.0037672535211743215
-0.0031078755618067014
-0.00014329442466248663
0.00022033112221042
0.00021948730989023712
-0.0028908231990895238
-0.0005437188731554689
-0.002689907900407379
2.8194084941678347e-05
0.00022801960411415577
-0.0001431384052585986
0.0002204723969355534
0.00018786347886397774
-0.0023834978618946087
0.0027396455219338037
0.00022383363182869887
-0.000251155601245682
-0.001999806898440341
0.0020338098738717125
-0.0014856730688686526
-0.00013200246674870115
0.00018370494409074463
0.00044604508145954354
-0.0010380421574446206
-0.00021316644662094407
0.00018090689849737423
0.00016010957524149457
-0.0006718629882680835
-0.0001322244229259035
0.00016078994646011058
8.88200905520905e-06
-0.00039222196608201267
-0.00013244584348703187
0.00015231381958188557
-0.003726212046516155
-0.00019655849077812614
-0.00021378869091527865
0.00014733810844795564
0.00027258575129236734
-8.756402696445299e-05
-0.0001312204279273701
0.00012030716286962294
3.2029715554099893e-06
-6.153730661595091e-05
-0.00013897978512063012
0.0001386754592593137
0.0017189454380610988
-0.0001150605600515145
-0.00016719028125287462
9.199072412998211e-05
0.0016925690817423604
-0.00024904212509458735
-0.00014620740962111972
-0.0004668661580324778
0.0009639602546605015
0.00014646174105885663
-0.00016518046448452302
-0.0008594072448059548
7.422567265514537e-05
-7.207096029492999e-07
0.0001249349857311888
-0.00159846953889041
0.0030667526573951638
-6.88742197930258e-05
4.874971162960611e-05
-0.002477874185405353
0.00015595432994016797
-0.0030607188733001753
-3.5898491159490846e-05
-0.00014263320664421782
0.001955802239262124
-0.00030857880221315035
-5.275344150301378e-05
-0.0031838683075208546
0.0014011174920421094
-0.0006299803120640297
0.00013680717448611782
-0.001102575034511335
0.00013762669534240582
-0.001689194024485131
0.00019201024237638296
-0.002322114650689991
0.00012648825771295488
-0.002880659718457967
-0.00015507572569470625
0.0023287726278233053
0.00018527475105478824
0.002989732641068523
0.0009817502012511863
0.00012308711357365566
-0.003741466511301182
-7.633069234929988e-05
0.00015044317112880367
0.0020877868552206355
0.0001801208267776858
0.0035560471637525377
0.0007120858625866363
-0.0008686126344766697
0.00022980832913736758
0.0031696116478050086
0.0005076590892713934
0.00042716742825771976
0.0003470727119282152
0.003344202410575305
-0.003609500305885956
-0.0014286060933161701
0.0004136062287383981
-0.00010161305463086547
0.0004554601771557621
0.0020206580704764422
0.00017873485440344602
0.0001513132683349655
0.000662933093561385
-0.00352821833044544
0.00037729208280653614
0.0037011458929601536
0.0003233463828105875
0.0025161156953210145
-0.0034615653637623247
0.0035030183474505485
0.0007546956866204996
-0.0033418224621459152
0.0012405602073214755
0.0036380969114919327
0.00018340823351244395
0.0005517377410567674
0.001013994079387472
0.00016691529546728503
-0.0033055189779642798
-0.002150875591691379
0.001838025189571938
0.003751608585771203
0.002482405048264107
0.0024322387266879236
0.0030487546739345712
-9.841741514997438e-05
0.0001821985379752767
-0.0026067657349524336
0.0017539279053364577
0.003723926181791024
0.0033494634620685475
-0.00015155081296636217
-0.003147577319467048
-6.700929503307578e-05
0.00018497569673309763
-0.003029840034170722
0.0026175748155337353
-0.00010927992134282664
0.0032153400264594567
0.000979243294239283
0.00018036286111299503
-0.0001054692331620049
-0.002988302233641573
-0.003611482982794164
-0.0028343802995377657
-9.607903607847262e-05
0.00019142304466348046
0.0004992846353690997
-0.002678942909543919
8.81225786866682e-05
-0.0025443869142310455
0.00013663908920926208
0.0002000292937149172
-9.736287405458771e-05
-0.002312385636645039
0.0027054540792644196
0.0001966660370830279
-0.00011696115989749139
-0.00203096949372276
0.0018697045442439607
-0.0015929469418607908
-8.515284645905083e-05
0.00015701557610491482
0.002276560437338296
-0.0011997368875643023
-0.0001109784851769487
0.00015453790788004675
0.00011272817944447344
-0.0008619031497780963
-8.7127089970343e-05
0.00013423050754670702
0.00015033668836229156
-0.0005882342189058251
-8.982292702554855e-05
0.00012488871977572516
-0.0036092677740418213
-0.0003824324204023449
-0.00014145900772674663
0.00011887117122298218
0.000588180578393315
-0.0002522756105648618
-9.038307039081205e-05
9.010548905137923e-05
0.00011877714875536187
-0.00019963383179919412
-9.963584679720156e-05
0.00010704549115659793
0.0015074994142425797
-0.00022512102242438204
-0.00012326809985997267
5.818878651643595e-05
0.001599688779772711
-0.00033358982186765273
-0.00010874118857186242
-0.0005306659807556117
0.0015490853302869187
0.00011068163413044856
-0.00012189445500978337
-0.0009023736365510658
0.00019920320308770408
-3.985349799659111e-05
1.8360288510257796e-05
-0.0016393827210911234
0.0028015884699386174
-0.00011452594391111563
4.3993763295041834e-05
-0.002539750983593067
0.00010694668041487188