# vtk DataFile Version 1.0
GRUMMP topologically 2D mesh
ASCII

DATASET UNSTRUCTURED_GRID
POINTS 4142 float
  0.9902132100051211  -0.0013897599745845   0.0000000000000000
  0.9878682672001325  -0.0017209544766007   0.0000000000000000
  0.9922830260938109  -0.0010965337451688   0.0000000000000000
  0.9852627687065505  -0.0020876945602550   0.0000000000000000
  0.9824126515147726  -0.0024873693035198   0.0000000000000000
  0.9941016532545700  -0.0008382294190312   0.0000000000000000
  0.9793229395886266  -0.0029189889321549   0.0000000000000000
  0.9759912936709813  -0.0033826574903297   0.0000000000000000
  0.9957253756688895  -0.0006072067599891   0.0000000000000000
  0.9724158418644283  -0.0038783672872607   0.0000000000000000
  0.9972114818934485  -0.0003956828894990   0.0000000000000000
  0.9685983419668763  -0.0044053177853816   0.0000000000000000
  0.9986172604849257  -0.0001958749290171   0.0000000000000000
  0.9645418982154840  -0.0049624143705746   0.0000000000000000
  0.9602493276520160  -0.0055486932126648   0.0000000000000000
  1.0000000000000000   0.0000000000000000   0.0000000000000000
  0.9557225436143375  -0.0061636003738353   0.0000000000000000
  0.9986172604763917   0.0001958749302285   0.0000000000000000
  0.0136778115501445  -0.0198442283865115   0.0000000000000000
  0.9509632892996972  -0.0068066585239019   0.0000000000000000
  0.0111799405480040  -0.0180409152078963   0.0000000000000000
  0.9972114818757430   0.0003956828920181   0.0000000000000000
  0.0164236219435115  -0.0216216850259729   0.0000000000000000
  0.9459737546847580  -0.0074771440326796   0.0000000000000000
  0.0194159763686392  -0.0233724637256901   0.0000000000000000
  0.0089312659290954  -0.0162123970812813   0.0000000000000000
  0.9957253756403164   0.0006072067640564   0.0000000000000000
  0.9353156997544615  -0.0088958032333210   0.0000000000000000
  0.0226532123065557  -0.0250954152174871   0.0000000000000000
  0.0261336316774566  -0.0267893559859237   0.0000000000000000
  0.0068429846519911  -0.0142695304151425   0.0000000000000000
  0.9237713702124288  -0.0104115615140689   0.0000000000000000
  0.0298554003449755  -0.0284531869488138   0.0000000000000000
  0.9941016532123735   0.0008382294250309   0.0000000000000000
  0.0050308200222286  -0.0123013782195995   0.0000000000000000
  0.0012596550434314  -0.0062543845982477   0.0000000000000000
  0.9113626015789812  -0.0120184565864932   0.0000000000000000
  0.0338165365583016  -0.0300859006297539   0.0000000000000000
  0.0005600587198625  -0.0041872521188657   0.0000000000000000
  0.0034956879705714  -0.0103096477045821   0.0000000000000000
  0.0380150486067802  -0.0316864834866382   0.0000000000000000
  0.0001400674572995  -0.0020989425108620   0.0000000000000000
  0.0424489169588349  -0.0332538061244847   0.0000000000000000
  0.8981160449036193  -0.0137076729882106   0.0000000000000000
  0.9922830260341767   0.0010965337536290   0.0000000000000000
  0.0022384105171692  -0.0082946477552229   0.0000000000000000
  0.0000000000000000  -0.0000000005380880   0.0000000000000000
  0.0471161050109934  -0.0347866680569130   0.0000000000000000
  0.8692172420003259  -0.0173025512123363   0.0000000000000000
  0.8840586048664243  -0.0154712341935952   0.0000000000000000
  0.8536242589802903  -0.0191927756559575   0.0000000000000000
  0.0520144653095357  -0.0362838744017245   0.0000000000000000
  0.9902132099234322   0.0013897599861408   0.0000000000000000
  0.0001400673054027   0.0020989413744649   0.0000000000000000
  0.0005600583994229   0.0041872509286527   0.0000000000000000
  0.0089312642537700   0.0162123956290166   0.0000000000000000
  0.0068429832427153   0.0142695290019493   0.0000000000000000
  0.0022384098100130   0.0082946464730838   0.0000000000000000
  0.0034956870455263   0.0103096463775504   0.0000000000000000
  0.0050308188630767   0.0123013768482443   0.0000000000000000
  0.0111799386902237   0.0180409137864515   0.0000000000000000
  0.8373107726191357  -0.0211334926288444   0.0000000000000000
  0.0624935355792051  -0.0391666954139108   0.0000000000000000
  0.9878682670932252   0.0017209544916756   0.0000000000000000
  0.0136778095139640   0.0198442269960848   0.0000000000000000
  0.8203090273240524  -0.0231167391866414   0.0000000000000000
  0.0738633143603066  -0.0418930499584099   0.0000000000000000
  0.8026551811301268  -0.0251343400368426   0.0000000000000000
  0.9852627685719384   0.0020876945791685   0.0000000000000000
  0.0861021386417074  -0.0444536409739349   0.0000000000000000
  0.7843840873894279  -0.0271778197795966   0.0000000000000000
  0.9824126513500548   0.0024873693265746   0.0000000000000000
  0.0991843265815398  -0.0468392532814141   0.0000000000000000
  0.0164236197329729   0.0216216836667636   0.0000000000000000
  0.7461418339277840  -0.0313078737465108   0.0000000000000000
  0.9793229393907722   0.0029189889597428   0.0000000000000000
  0.1130825286139299  -0.0490420520078216   0.0000000000000000
  0.7058944105034720  -0.0354399888107516   0.0000000000000000
  0.1277704618123611  -0.0510562827506626   0.0000000000000000
  0.1762568929815641  -0.0559042078350805   0.0000000000000000
  0.0194159739879911   0.0233724623981675   0.0000000000000000
  0.6639684116827792  -0.0395008026994765   0.0000000000000000
  0.1937838883744062  -0.0571083155282771   0.0000000000000000
  0.9759912934368556   0.0033826575228533   0.0000000000000000
  0.2119350336566717  -0.0581032139582273   0.0000000000000000
  0.1432165586985055  -0.0528747491799113   0.0000000000000000
  0.1593891568184451  -0.0544918670991958   0.0000000000000000
  0.0226532097601106   0.0250954139222151   0.0000000000000000
  0.6207078411914361  -0.0434191082996254   0.0000000000000000
  0.5764634620046084  -0.0471137377839725   0.0000000000000000
  0.9724158415910057   0.0038783673250912   0.0000000000000000
  0.2306739249637577  -0.0588890260835713   0.0000000000000000
  0.0261336289695199   0.0267893547234291   0.0000000000000000
  0.5315950381341085  -0.0505057454921963   0.0000000000000000
  0.4864703588817339  -0.0535094604401647   0.0000000000000000
  0.4414549182767121  -0.0560390634426787   0.0000000000000000
  0.9685983416513994   0.0044053178288238   0.0000000000000000
  0.2697570606452168  -0.0598365819607799   0.0000000000000000
  0.3969170552729402  -0.0580119076690758   0.0000000000000000
  0.0298553974799863   0.0284531857194991   0.0000000000000000
  0.9645418978552561   0.0049624144199126   0.0000000000000000
  0.3107174127482247  -0.0599745523566999   0.0000000000000000
  0.3532197168655907  -0.0593474025151865   0.0000000000000000
  0.9602493272443249   0.0055486932681955   0.0000000000000000
  0.0338165335406938   0.0300858994339835   0.0000000000000000
  0.0380150454409591   0.0316864823247920   0.0000000000000000
  0.9557225431564565   0.0061636004358678   0.0000000000000000
  0.0424489136491938   0.0332538049970267   0.0000000000000000
  0.0471161015618897   0.0347866669642923   0.0000000000000000
  0.9509632887889385   0.0068066585927330   0.0000000000000000
  0.9459737541185675   0.0074771441085412   0.0000000000000000
  0.0520144617255517   0.0362838733443521   0.0000000000000000
  0.9353156990700551   0.0088958033238094   0.0000000000000000
  0.0624935317401540   0.0391666944281135   0.0000000000000000
  0.0738633102849253   0.0418930490455120   0.0000000000000000
  0.9237713694002159   0.0104115616199952   0.0000000000000000
  0.0861021343485112   0.0444536401350998   0.0000000000000000
  0.9113626006299211   0.0120184567085017   0.0000000000000000
  0.0991843220904188   0.0468392525175462   0.0000000000000000
  0.8981160438094651   0.0137076731266115   0.0000000000000000
  0.1130825239435962   0.0490420513187447   0.0000000000000000
  0.8840586036192291   0.0154712343488011   0.0000000000000000
  0.1277704569818227   0.0510562821360933   0.0000000000000000
  0.8692172405930260   0.0173025513845012   0.0000000000000000
  0.1432165537277111   0.0528747486397878   0.0000000000000000
  0.8536242574066383   0.0191927758449732   0.0000000000000000
  0.1593891517258480   0.0544918666322352   0.0000000000000000
  0.8373107708732270   0.0211334928345504   0.0000000000000000
  0.1762568877862003   0.0559042074398506   0.0000000000000000
  0.8203090254010921   0.0231167394087162   0.0000000000000000
  0.1937838830953411   0.0571083152030304   0.0000000000000000
  0.2119350283118140   0.0581032137003017   0.0000000000000000
  0.8026551790260408   0.0251343402747870   0.0000000000000000
  0.2306739195716207   0.0588890258904683   0.0000000000000000
  0.7843840851007032   0.0271778200327233   0.0000000000000000
  0.2697570552113356   0.0598365818878674   0.0000000000000000
  0.7461418312636445   0.0313078740273454   0.0000000000000000
  0.3107174073396524   0.0599745523895525   0.0000000000000000
  0.3532197115457904   0.0593474026374948   0.0000000000000000
  0.7058944074605978   0.0354399891145804   0.0000000000000000
  0.6639684082655058   0.0395008030201497   0.0000000000000000
  0.3969170500997217   0.0580119078642495   0.0000000000000000
  0.6207078374111498   0.0434191086291270   0.0000000000000000
  0.5764634578798972   0.0471137381129498   0.0000000000000000
  0.5315950336908907   0.0505057458089039   0.0000000000000000
  0.4864703541532008   0.0535094607315534   0.0000000000000000
  0.4414549133024901   0.0560390636939180   0.0000000000000000
  0.9901595609719056  -0.0023783411927147   0.0000000000000000
  0.0326649145266362  -0.0334200843455863   0.0000000000000000
  0.9878329678703356  -0.0027145673674890   0.0000000000000000
  0.0733998606732272  -0.0440344159407381   0.0000000000000000
  0.9922372924577029  -0.0020726951087579   0.0000000000000000
  0.8846838814295012  -0.0208009306521702   0.0000000000000000
  0.9852539181750185  -0.0030832573491977   0.0000000000000000
  0.8205556230767344  -0.0253024477924150   0.0000000000000000
  0.9824277530968584  -0.0034836508822686   0.0000000000000000
 -0.0022154120548041  -0.0049277430541563   0.0000000000000000
[...]
POINT_DATA 4142
SCALARS continuity float
LOOKUP_TABLE default
0.0028605053543932155
0.0026052305116318823
0.002990317944485275
0.0023884815492391915
0.0022531047632868163
0.0034359430779041145
0.002151596772932662
0.0021019521432770107
0.002925266772259706
0.002078661195170397
0.004096955862066848
0.0021312502710561267
0.02200192018863341
0.002189464187198377
0.0023192383825277694
0.015640178434058308
0.0024540611144538756
0.02072341588652292
0.00228712491506863
0.0025238973238461615
0.0021432740855674604
0.0039411452986503675
0.002422363863585842
0.002895098089764067
0.0023831379682316507
0.0007747115047762387
0.00222967642879147
0.0032527752824686724
0.002195103186228058
0.0019032218132156672
0.00039174108267725505
0.003624377461396989
0.0015921555271965464
0.002904448610851061
-0.001054434982575993
-0.005191398438597614
0.0039820069202479835
0.0012739106949316583
-0.0061599659056547
-0.0024930945851719608
0.0009525095399497119
-0.0067907239554036245
0.0006820704632657371
0.004295205135308919
0.002592720895294297
-0.003933000687658666
-0.007576788966665059
-0.0007204411196338579
0.004928986167400594
0.004583081742317604
0.005294268374944045
0.0019074477187325382
0.0025672125337712253
-0.009204998282862175
-0.001302222104038291
0.0007430077158575221
-0.00010827256561076891
-0.009271838377209712
-5.205217449983892e-05
-0.0012391942583928918
0.002292391746672572
0.005708443928598879
-0.0014053359849254814
0.0023382776579428284
0.0026403788771535786
0.006183663626034114
-0.00041230550187521686
0.0067128756686652075
0.0022029886258764734
-0.0010114717101731073
0.007337219007187811
0.0020182802401257664
-0.0015089620351632822
0.0028959065902690747
0.008411560277334968
0.0019357972038341643
-0.0018614988743786067
0.00937465712307746
-0.002145733371640388
-0.0029605667075286446
0.00292457724072159
0.010080519710853135
-0.003342185657250043
0.0018816331511542904
-0.004437948372480258
-0.0024058916426600973
-0.0026754993944276546
0.0027611452428300386
0.01000348658283092
0.008681380122836074
0.0018781882426207306
-0.00372296815331876
0.0024806065690652665
0.005899026219292105
0.0018894210971932925
-0.0025418199261979454
0.001904077383091167
-0.006156705448933102
-0.006116333221352457
0.002154759734739116
0.0019805166998758885
-0.006907161084249567
-0.007687857743989005
0.0020537541138969137
0.001810269204743709
0.001459915890326262
0.0022544098694904993
0.0011655478930165974
-0.00023918549256761852
0.0024451575473955836
0.002701916225616048
0.0023865599950203664
0.0031899472565099195
-0.0009562547196856148
-3.2918664062533795e-05
0.0035392314962732515
-0.0006894125140076384
0.003917435530755858
-0.0012202973781323505
0.004221406857457391
-0.0015897180761831684
0.004610854586730058
-0.0018792507942794925
0.004918090759410676
-0.002136745570528719
0.005306479765368579
-0.002398221566020008
0.005677590098365934
-0.002675265166967245
0.006131916488772473
-0.0030444307446779156
-0.004113038699689367
0.006746573219317827
-0.003347706357918527
0.007408622155294616
-0.0057527367451057
0.008500746161330834
-0.006515722710588561
-0.0072937965841819285
0.00945104757876112
0.010218613691307155
-0.005696873562322088
0.010198652378440306
0.00896398476205183
0.006267745167250311
0.00231522359238136
-0.002101170592108009
0.002825833764902045
0.001978403396468793
0.002566397592722807
-0.0012276988130159295
0.002864759491688981
0.004596356057547519
0.0023675432708000076
0.006206934214869929
0.002240439538579341
-0.001776444218510144
0.0034892407119021555
0.0031340039765366465
0.002143274734507217
-0.0020683736467010105
0.0020981856919728144
0.002316354298225075
0.002309573131019924
0.0016869933329782892
0.002078073471952754
-0.0022044423942951777
0.003969758236459762
0.004961771516367528
0.0021332666618677863
0.005732400901249849
-0.00282855539661413
0.0014870548452602219
0.002193527096528051
0.003214229795396164
0.002326116938542184
0.002315608897370511
0.005386460586411791
0.004813151282701755
0.004291396982340945
0.004322722947875488
0.0033223105370330567
0.004340222435982072
0.004386864954029376
0.00246473597432243
0.0017082450589321113
-0.002903556778973566
-0.0025557510542358643
-0.00034793670735454063
0.001941520637277997
0.0025400596173854434
0.001370617653879532
-0.00011794457240041235
-0.0010911525807106171
0.0032644024773330017
0.0011390995651107396
-0.0004991368717567966
0.0021886274393654787
0.0029097051186227647
0.0003725704271548319
-0.0006769103681219888
0.002787725854128346
-0.000362454931707187
0.004300646040455856
0.0018734080242655453
-0.0036160435654921394
0.0032708757681882
-0.0027206199308473524
-0.0008806314498472029
-0.005396981704619182
-0.0010984858479800995
0.0024491509349823903
-0.0003850690301695988
0.002561346296837038
0.003641246512337956
0.0004342513207082794
-0.00128511710761426
-3.096825336280693e-05
0.002938336184108104
0.0005157542321158365
-0.0008265852782345706
0.005315780268427384
-0.0034504351072682134
0.0006834291896528113
0.004001528340050211
0.0045978146333525245
-0.0014437119505451494
-0.003130239452568281
-0.004569128633840857
0.0049496223432326375
-0.0014767533140300035
0.0003056976071494979
-0.0015814933163899045
-0.0012829615596131345
-0.005487192285629255
4.539602564934605e-05
-0.0015998165441529616
-0.005102855301928724
0.004313109140418939
0.0023929207994351697
0.002501045141888795
-0.0006504084810290259
-0.0023763201793258787
0.004954667247910805
-0.006519902991311159
0.002500253682765051
-0.0023251790099576225
-0.002387013966404369
0.004946269014346979
0.00430774372601053
0.004599086940193341
0.004597399614315681
0.005310667724269039
-0.00026187488437031325
-0.0008528106912554415
0.004289438153890573
0.002530467697479502
-0.004311666153894132
-0.0069788256906777105
0.005325418055359424
-0.004436314691033766
-2.790786105716234e-05
-0.0003518129303083409
0.0006229640559313758
-0.0007413525388865897
0.0007063812000865019
-0.003247216868960209
0.0010213434070862116
2.004993521067958e-05
-0.003382164599726397
-0.0008999654640540713
0.002383361910133638
0.00011125993054402527
0.00036494099983611604
0.005723125756494712
0.002507007105611414
-0.002879687858184102
0.003990044046266365
0.0023010849941587255
0.002277712694147188
9.551399425472596e-05
-0.002068065715110127
0.006199702962595168
-0.0031121557742640558
-0.0018111380251710132
0.0018072360337979957
0.006727950245545756
-0.0022464993661708327
0.002182244020819446
0.0030000027323335695
-0.002176175593169475
-0.0018692332204005286
0.007350103988992712
0.0008169676405507492
0.002001531602523113
0.0022326514844327365
-0.002479723235709112
0.0036297016101036425
7.103449394615382e-05
0.004002238088158181
0.008424678395361661
0.0026582415084211585
0.001927904638498563
0.002780972308925334
-0.002672281839300598
0.0012993271998499424
0.009384314272334025
0.0033918487709658387
-0.0028199694070597135
0.001800876495648697
-0.0033495810037250957
0.0049767392719537425
-3.904795029908241e-05
0.00325978232319759
0.010086728734801171
6.609352484083429e-05
-0.003658918679361917
0.0021624002213326988
0.0018753082792679337
0.0017735137172508032
-0.004657924910395922
0.0030142241910978045
-0.0029673476215436342
0.0026506086948830565
-0.0031401424036983693
0.002286874350769109
-0.0002337384709397727
-0.0015715675152141615
0.010007434236945632
0.0029075467789921763
0.008677136142438945
0.0028534965582528897
0.0018744788367054386
0.0027008401379283236
-0.004019625736483271
-0.0014761670270699483
-0.0004507593666488859
0.004041510360996615
0.005888614732974053
0.004449545337217392
0.001866519461498278
0.003292567536977547
-0.00257780313175269
0.004599452068437487
0.0019035420630322598
0.002539802366455496
-0.00630413835107029
0.005747156815745353
-0.006171818724954122
0.0030187216723862953
-0.0006721254897165149
0.0032855215773390273
0.001981220598474162
-6.626857562581528e-05
-0.0070180323066789665
-0.0011384386053192226
-0.007767791502496732
0.0024715909832036197
0.002059171716174837
0.004292346338319636
-0.000862181343415835
0.0023358302724004066
-0.001036368388152922
0.002258334633928616
0.0022638907930242593
0.002208652017793242
-0.0010799759842057752
0.003959413492406112
-0.0018097019508654306
0.002944014395608557
0.002459177571359962
0.004497582535500032
0.0027145265220404045
0.002155565973152871
-0.0003709039363752705
0.005364317969954872
0.0032085841113579576
0.0042683764364127765
-0.002421215570249995
0.006222124001828018
-0.0014271062356168308
0.0021040398971824276
0.003555758281804348
-0.00043606403602580105
-0.001853977412837282
0.002933870756097899
0.003934889288189441
-0.0004260141080279523
-0.002195237344631466
0.0021263828801964253
0.004238760629575645
0.005921797643631339
-0.002405055555204977
0.002174630532968286
0.0046265300915168135
0.0067517326270884834
-0.002560130129149569
0.0034588862675809027
0.004933329758729745
0.002732680233695114
-0.002702332054830089
0.0022681993497013185
0.005321521267628858
0.002170316306168289
-0.0028691453527974883
0.002389799581178491
0.005692555664087505
0.0026456833217510483
-0.0030693535545523454
0.0028848252380184298
0.006146265160371398
-0.0010837062785782037
-0.0033654033196589867
0.0025759691837528077
-0.004336943601707385
0.0027997436408773745
0.00676015052180832
0.0028308739543938233
-0.003653115818883495
0.007377214678168225
0.007420792533318834
0.004303848737782757
-0.005904620342901534
0.0032255229257812574
0.008511169155174693
0.005982996664041356
-0.006631685910071777
0.001997791965533172
-0.007377661220491498
0.006128409643535227
0.009458539354885127
0.0037582214441446776
0.010223205603289742
0.006319105723023524
-0.005758187623898605
-0.001636655811759899
0.010198055637919139
0.006437032760058878
0.008958608439294179
0.002342728072856968
0.006253962633310822
-0.00021673482999430454
0.0022903382663949775
0.004380577067253731
-0.0021421730118377125
0.005887142981803017
0.006734892637381937
0.004281188907343504
0.002212664795237937
0.003977578166299458
-0.0017276993816967563
0.005340397293330631
0.007360199999370335
-0.0006795310064152758
0.0020356256281306396
0.0016521966225129278
-0.0021421290862447626
0.0027060005994548448
0.0029741411532450517
0.0020825928325257812
0.0084348601855597
0.0028614029613552175
0.0019670338640337235
0.0031495127863166725
-0.002414945883458555
0.0025035065600925318
0.009393764351528187
0.0024375654500331544
-0.0026145113803609475
0.0036120203358318333
-0.003213008635932378
0.002766285399752209
0.0026820494332778304
0.003568880497749045
0.010094035909247703
-0.0024592729231574413
-0.0035362456268807265
0.003029503465692075
0.0019138348547804132
-0.00205199593067133
-0.004583854068929702
0.003539221944321604
-0.0027922573528926602
-0.0013344696872549314
-0.0029870441480226518
0.003240815866343251
0.00226325431117378
0.001945543304360083
0.01000848031257829
0.0023320900258178
0.008672087194286112
0.004299461438272318
0.0019121103777366396
0.004085793176986369
-0.0039398599004699395
0.0034716278747750143
0.0018051365746118994
0.0039728545089145325
0.005873476609707226
0.007403029312775021
0.0018425125324900318
0.0028908997541510673
-0.0026059631762320856
0.003672985699507418
0.0019352831062782129
0.004295837993763794
-0.006257352289391966
0.005013005251110382
-0.006196690032710007
0.003240221859424632
0.0013405318281318854
7.245433412380003e-06
0.0020114601867881883
0.004481940631868428
-0.006994900817354402
0.0013453074142582334
-0.007773775969692389
0.0025194298035066936
0.0020815614668155927
0.0024562929744074186
0.0008921854807063729
0.004459187442083722
0.0004842980567341855
-0.0008991145700563314
0.002278695984110162
0.001552869618724848
0.000245982493585087
0.0030620776956967483
-0.0007660214515678205
0.0024568833146619063
0.002462693652862272
-0.0013934604766196322
0.0027145953562819273
0.0023229116011350814
0.00046381724461896023
0.004811597998518008
0.0032012760240590944
0.0021939445050202966
-0.001713376833466793
0.0046229141505918885
-0.000809345082977855
0.0018577987472499272
0.0035476775003251515
0.005766175614733936
-0.0013670277516407122
0.0021425262550506655
0.0039285346350327625
0.003770003206281832
-0.001818882741944999
0.003741826823930981
0.00423620060617154
0.00016491878117835148
-0.0021120010230207655
0.0020841637176315284
0.004629157601399396
0.004369027238710273
-0.0023217041376687765
0.0027018002810497237
0.004939077297920227
0.002180824843348958
-0.0024968459459412144
0.0021016941742002483
0.005330998393921105
0.003939561330856387
-0.0026860786124703597
0.0021409241757068976
0.005705668766609008
0.00504513312025421
-0.0029085258472160576
0.0032760820436614
0.0061590019117105255
0.005413475281197668
-0.0032180974426533047
0.002220387713534034
-0.004242817690869387
0.006247690610724804
0.006772177205008123
0.0023243320928627103
-0.003554927692973552
-0.0005153544631498001
0.0074368289763235155
0.002779115165112105
-0.0058403497520329115
0.0005817822895681099
0.008525440145828374
0.0024971468796031564
-0.006591228980392718
-0.0003779535455774837
-0.007370742964077582
0.0027387266254812457
0.009472688412442712
0.00677807803009605
0.010234809253388313
0.005142415520582577
-0.0057709711438285296
0.0021488038317200053
0.010205467813637431
0.005085236679765107
0.008958940880616448
0.0021037041179668725
0.006244988566885589
0.0051594446260953995
0.002272611185358383
0.002952997553280444
-0.002163516948555025
0.004226461228095803
0.0035853116656867734
0.008451091533293533
0.002251882600886205
0.0019468466795468787
0.003568840509057186
-0.0020165315174055887
-0.0020332066740185546
0.009403032849010697
0.004186550997634186
-0.0022828451362050303
-0.0018265813930022302
-0.002960066210751842
0.004546633048308495
0.004114072191927428
-0.0010923969453093363
0.010095164967364711
0.0032148627569416614
-0.00329906015383178
0.0020190705925332195
0.001904224290573343
0.0024629153926330055
-0.004385576707688876
0.0036063142656308144
-0.0024995225185155206
0.004140742463857645
-0.0027155281723619668
0.003216377915905527
0.0037245588417225335
0.004783780060460968
0.009994993083605143
0.0030580164208642378
0.008638265353462838
0.004874930200600153
0.0019092873233874134
0.005114270571241773
-0.0037387819015061345
0.0032578826575496256
0.0032605840703505344
-0.0003297360694876528
0.005815707264915347
0.004617206603129296
0.0017668653774284193
0.0010592555101828483
-0.0026860751168999632
0.002488135064631008
0.0019354763215578196
0.0016685270567583458
-0.0060936618134661375
0.004818044611566176
-0.006249508255834303
0.001880956803767624
0.002771466717390376
0.002301052588373049
0.0020133775796539726
0.0024493582673901088
-0.00690114311606921
0.0024305327888910003
-0.007765339063217311
-0.0012605946042519005
0.002079296241554695
0.002297497807036735
0.002288928862087302
0.0040588594552672785
0.0018168143760680464
0.0021637227634674697
0.0022755468746304265
0.004710029490651392
0.0015051504026263663
0.0033537238920521646
0.0004635167705377873
0.00579799732170389
0.0024575525014124034
0.0021120661966271435
0.0027064608002489005
0.002651186755413401
0.001455741090333758
0.0031689618926695395
0.0031934688917199384
0.0036259886457516086
-0.0006713551790790523
0.0010689283635074035
-3.3319254943478516e-06
0.0020403019227512808
0.0035406635437032746
0.004612414170238142
-0.0006947007931150256
0.0029439519657471114
0.003926755763299198
0.0020948494372148513
-0.001272769755912837
0.002045913317011084
0.0042401981451000905
0.003938172624760456
-0.0016649400970545605
0.0020686618350768313
0.004637712164599343
0.00435322799601553
-0.0019383732773603553
0.0031404993501966136
0.0049527371758587065
0.005524078044086683
-0.002151503931570466
0.0021332621021213317
0.005349368666693072
0.006281384962492203
-0.002364375319871902
0.0022166591238633204
0.0057265228038137946
-0.0005095477266553508
-0.0026043468058335327
0.002718166458175145
0.00618415205477438
0.00117991138258313
-0.0029362159096480347
0.002391803679193436
-0.004001732077985303
0.005523888709772928
0.006798886185886537
0.0026166077780493567
-0.0033126935401642708
0.0068155289898210614
0.007463593762662566
0.004797058132225582
-0.0056395533327845936
0.0017012421467461059
0.008551230537619737
0.005001644082835464
-0.006463809990396264
0.0020289461416931344
-0.007333383204522187
0.005022585327018839
0.009491970708678799
0.0026337885842192565
0.010246978989340301
0.003969288956067951
-0.005801656493116136
0.00028436490227713506
0.010203469899819642
0.0035859142030085995
0.008936973762469727
0.00249004005329254
0.006201117536408023
0.0026975965784734545
0.0022113790082986897
0.007439576015849384
-0.002224299167439564
0.0028655879026049484
0.0022549708958596337
0.0019315225358402313
0.0039965932751456976
-0.0008959116329345387
0.0022186723407848605
0.00509729579713056
0.0035559031942270806
0.008472449349932626
0.0008965138517257545
0.0019001758430053106
0.0028281503120841274
-0.0013863428006949615
-0.0017060386094265112
0.009412433631235001
0.004131293055737225
-0.0017286341169040686
-0.0014063219520137928
-0.002468880775200112
0.0042016986155735524
0.004985928642746855
-0.0008848955848273941
0.01008581048819454
0.003185865334119317
-0.00281983125982103
-0.0009300972511337005
0.0018717589237330376
0.0025125934413155766
-0.003935746412940916
0.0028148709992271924
-0.0019839639812033417
0.0033114471975347155
-0.0022172295034308424
0.0020255969858175038
0.004693251435047916
0.004199798832294329
0.009957780259335351
0.0024282880433269764
0.008562932560767737
0.004101433389357395
0.001891497972449888
0.005370310173402632
-0.003264866226702609
0.002927161256439687
0.004316368976514594
-0.00040381374070881096
0.005702338175669675
0.003698580039699307
0.0016317814199345929
0.0010086975590567694
-0.002799062684716991
0.002452756488180613
0.0019252341085918584
0.0011278714189096775
-0.005650552022916697
0.0039402416380205085
-0.006271866856046838
-0.0002532455651129225
0.0038518455488601023
0.0024677570628472813
0.0020097553777637923
0.0019091895806980994
-0.006575822944381131
0.002399963264213732
-0.007627134171515987
-0.0009194883174487427
0.002070826727740376
0.0022631961984477455
0.003348793165725535
0.003091863652969901
0.00285196797277815
0.002116729400432752
0.002270653941407417
0.0049624062554716455
0.002480315067805207
0.0028017591306079043
0.0015290244048869423
0.0058566751407474445
0.0024526298026655517
0.0020628112582211054
0.002285757794055193
0.0018651740407903618
0.0031867113744637604
0.0032651681471382267
0.00044392533953728725
0.0018384372731110202
0.0008701452736766851
0.0019699434959462242
0.0035312131814011346
-0.0005216830612069948
9.194984427679246e-05
0.0028134150726762956
0.003925749995542923
0.0020257120055997475
-0.0005650196490964731
0.00196455854798863
0.0042460031817632485
0.004003809151989497
-0.0010313496343276301
0.0019755889411316846
0.004653981546066644
0.003262029436405194
-0.0013552622643284258
0.0029134778795553706
0.004977541765115464
0.005781545988082587
-0.001593726448404667
0.002028043254431539
0.005382344571964813
0.006342590416302789
-0.00181123816015479
0.002086393953257947
0.005765128151802916
-0.0003124464280768286
-0.002051866394347966
0.0026108934977167597
0.006225810755129169
0.0016428840463414342
-0.0023928455812563237
0.0022683139783046327
-0.003484439929816247
0.0009352112536598983
0.00684154683927718
0.002448822079745589
-0.0027728757153914164
0.006878060151094576
0.0075063006634856
0.004209103694091085
-0.005131393757328422
0.0015317396278578762
0.008592427668892628
0.004413995057734309
-0.006079736406561588
0.0019250649225939318
-0.007146582315395153
0.004275984733711295
0.00952108796982715
0.0013534327778352568
0.010257121640617858
0.0035420411490862556
-0.005782541779057072
0.0004970597035964028
0.010187682462177728
0.003413310965966535
0.008884914584347491
0.0024649639113824154
0.006112157485754176
0.002695235080897363
0.002107105661190648
0.007499462283589026
-0.0023028896005655294
0.0028372090143602433
0.0007947094020965691
0.0018572189368189407
0.0031036589800574714
-0.00045438916673360444
0.0022412272697488337
0.0045388097874922255
0.003544200789371581
0.008504819218889298
0.0005227461773687648
0.0018445929897813072
0.0022079087935378177
-0.0009800639869843723