# vtk DataFile Version 1.0
GRUMMP topologically 2D mesh
ASCII

DATASET UNSTRUCTURED_GRID
POINTS 4142 float
  0.9902132100051211  -0.0013897599745845   0.0000000000000000
  0.9878682672001325  -0.0017209544766007   0.0000000000000000
  0.9922830260938109  -0.0010965337451688   0.0000000000000000
  0.9852627687065505  -0.0020876945602550   0.0000000000000000
  0.9824126515147726  -0.0024873693035198   0.0000000000000000
  0.9941016532545700  -0.0008382294190312   0.0000000000000000
  0.9793229395886266  -0.0029189889321549   0.0000000000000000
  0.9759912936709813  -0.0033826574903297   0.0000000000000000
  0.9957253756688895  -0.0006072067599891   0.0000000000000000
  0.9724158418644283  -0.0038783672872607   0.0000000000000000
  0.9972114818934485  -0.0003956828894990   0.0000000000000000
  0.9685983419668763  -0.0044053177853816   0.0000000000000000
  0.9986172604849257  -0.0001958749290171   0.0000000000000000
  0.9645418982154840  -0.0049624143705746   0.0000000000000000
  0.9602493276520160  -0.0055486932126648   0.0000000000000000
  1.0000000000000000   0.0000000000000000   0.0000000000000000
  0.9557225436143375  -0.0061636003738353   0.0000000000000000
  0.9986172604763917   0.0001958749302285   0.0000000000000000
  0.0136778115501445  -0.0198442283865115   0.0000000000000000
  0.9509632892996972  -0.0068066585239019   0.0000000000000000
  0.0111799405480040  -0.0180409152078963   0.0000000000000000
  0.9972114818757430   0.0003956828920181   0.0000000000000000
  0.0164236219435115  -0.0216216850259729   0.0000000000000000
  0.9459737546847580  -0.0074771440326796   0.0000000000000000
  0.0194159763686392  -0.0233724637256901   0.0000000000000000
  0.0089312659290954  -0.0162123970812813   0.0000000000000000
  0.9957253756403164   0.0006072067640564   0.0000000000000000
  0.9353156997544615  -0.0088958032333210   0.0000000000000000
  0.0226532123065557  -0.0250954152174871   0.0000000000000000
  0.0261336316774566  -0.0267893559859237   0.0000000000000000
  0.0068429846519911  -0.0142695304151425   0.0000000000000000
  0.9237713702124288  -0.0104115615140689   0.0000000000000000
  0.0298554003449755  -0.0284531869488138   0.0000000000000000
  0.9941016532123735   0.0008382294250309   0.0000000000000000
  0.0050308200222286  -0.0123013782195995   0.0000000000000000
  0.0012596550434314  -0.0062543845982477   0.0000000000000000
  0.9113626015789812  -0.0120184565864932   0.0000000000000000
  0.0338165365583016  -0.0300859006297539   0.0000000000000000
  0.0005600587198625  -0.0041872521188657   0.0000000000000000
  0.0034956879705714  -0.0103096477045821   0.0000000000000000
  0.0380150486067802  -0.0316864834866382   0.0000000000000000
  0.0001400674572995  -0.0020989425108620   0.0000000000000000
  0.0424489169588349  -0.0332538061244847   0.0000000000000000
  0.8981160449036193  -0.0137076729882106   0.0000000000000000
  0.9922830260341767   0.0010965337536290   0.0000000000000000
  0.0022384105171692  -0.0082946477552229   0.0000000000000000
  0.0000000000000000  -0.0000000005380880   0.0000000000000000
  0.0471161050109934  -0.0347866680569130   0.0000000000000000
  0.8692172420003259  -0.0173025512123363   0.0000000000000000
  0.8840586048664243  -0.0154712341935952   0.0000000000000000
  0.8536242589802903  -0.0191927756559575   0.0000000000000000
  0.0520144653095357  -0.0362838744017245   0.0000000000000000
  0.9902132099234322   0.0013897599861408   0.0000000000000000
  0.0001400673054027   0.0020989413744649   0.0000000000000000
  0.0005600583994229   0.0041872509286527   0.0000000000000000
  0.0089312642537700   0.0162123956290166   0.0000000000000000
  0.0068429832427153   0.0142695290019493   0.0000000000000000
  0.0022384098100130   0.0082946464730838   0.0000000000000000
  0.0034956870455263   0.0103096463775504   0.0000000000000000
  0.0050308188630767   0.0123013768482443   0.0000000000000000
  0.0111799386902237   0.0180409137864515   0.0000000000000000
  0.8373107726191357  -0.0211334926288444   0.0000000000000000
  0.0624935355792051  -0.0391666954139108   0.0000000000000000
  0.9878682670932252   0.0017209544916756   0.0000000000000000
  0.0136778095139640   0.0198442269960848   0.0000000000000000
  0.8203090273240524  -0.0231167391866414   0.0000000000000000
  0.0738633143603066  -0.0418930499584099   0.0000000000000000
  0.8026551811301268  -0.0251343400368426   0.0000000000000000
  0.9852627685719384   0.0020876945791685   0.0000000000000000
  0.0861021386417074  -0.0444536409739349   0.0000000000000000
  0.7843840873894279  -0.0271778197795966   0.0000000000000000
  0.9824126513500548   0.0024873693265746   0.0000000000000000
  0.0991843265815398  -0.0468392532814141   0.0000000000000000
  0.0164236197329729   0.0216216836667636   0.0000000000000000
  0.7461418339277840  -0.0313078737465108   0.0000000000000000
  0.9793229393907722   0.0029189889597428   0.0000000000000000
  0.1130825286139299  -0.0490420520078216   0.0000000000000000
  0.7058944105034720  -0.0354399888107516   0.0000000000000000
  0.1277704618123611  -0.0510562827506626   0.0000000000000000
  0.1762568929815641  -0.0559042078350805   0.0000000000000000
  0.0194159739879911   0.0233724623981675   0.0000000000000000
  0.6639684116827792  -0.0395008026994765   0.0000000000000000
  0.1937838883744062  -0.0571083155282771   0.0000000000000000
  0.9759912934368556   0.0033826575228533   0.0000000000000000
  0.2119350336566717  -0.0581032139582273   0.0000000000000000
  0.1432165586985055  -0.0528747491799113   0.0000000000000000
  0.1593891568184451  -0.0544918670991958   0.0000000000000000
  0.0226532097601106   0.0250954139222151   0.0000000000000000
  0.6207078411914361  -0.0434191082996254   0.0000000000000000
  0.5764634620046084  -0.0471137377839725   0.0000000000000000
  0.9724158415910057   0.0038783673250912   0.0000000000000000
  0.2306739249637577  -0.0588890260835713   0.0000000000000000
  0.0261336289695199   0.0267893547234291   0.0000000000000000
  0.5315950381341085  -0.0505057454921963   0.0000000000000000
  0.4864703588817339  -0.0535094604401647   0.0000000000000000
  0.4414549182767121  -0.0560390634426787   0.0000000000000000
  0.9685983416513994   0.0044053178288238   0.0000000000000000
  0.2697570606452168  -0.0598365819607799   0.0000000000000000
  0.3969170552729402  -0.0580119076690758   0.0000000000000000
  0.0298553974799863   0.0284531857194991   0.0000000000000000
  0.9645418978552561   0.0049624144199126   0.0000000000000000
  0.3107174127482247  -0.0599745523566999   0.0000000000000000
  0.3532197168655907  -0.0593474025151865   0.0000000000000000
  0.9602493272443249   0.0055486932681955   0.0000000000000000
  0.0338165335406938   0.0300858994339835   0.0000000000000000
  0.0380150454409591   0.0316864823247920   0.0000000000000000
  0.9557225431564565   0.0061636004358678   0.0000000000000000
  0.0424489136491938   0.0332538049970267   0.0000000000000000
  0.0471161015618897   0.0347866669642923   0.0000000000000000
  0.9509632887889385   0.0068066585927330   0.0000000000000000
  0.9459737541185675   0.0074771441085412   0.0000000000000000
  0.0520144617255517   0.0362838733443521   0.0000000000000000
  0.9353156990700551   0.0088958033238094   0.0000000000000000
  0.0624935317401540   0.0391666944281135   0.0000000000000000
  0.0738633102849253   0.0418930490455120   0.0000000000000000
  0.9237713694002159   0.0104115616199952   0.0000000000000000
  0.0861021343485112   0.0444536401350998   0.0000000000000000
  0.9113626006299211   0.0120184567085017   0.0000000000000000
  0.0991843220904188   0.0468392525175462   0.0000000000000000
  0.8981160438094651   0.0137076731266115   0.0000000000000000
  0.1130825239435962   0.0490420513187447   0.0000000000000000
  0.8840586036192291   0.0154712343488011   0.0000000000000000
  0.1277704569818227   0.0510562821360933   0.0000000000000000
  0.8692172405930260   0.0173025513845012   0.0000000000000000
  0.1432165537277111   0.0528747486397878   0.0000000000000000
  0.8536242574066383   0.0191927758449732   0.0000000000000000
  0.1593891517258480   0.0544918666322352   0.0000000000000000
  0.8373107708732270   0.0211334928345504   0.0000000000000000
  0.1762568877862003   0.0559042074398506   0.0000000000000000
  0.8203090254010921   0.0231167394087162   0.0000000000000000
  0.1937838830953411   0.0571083152030304   0.0000000000000000
  0.2119350283118140   0.0581032137003017   0.0000000000000000
  0.8026551790260408   0.0251343402747870   0.0000000000000000
  0.2306739195716207   0.0588890258904683   0.0000000000000000
  0.7843840851007032   0.0271778200327233   0.0000000000000000
  0.2697570552113356   0.0598365818878674   0.0000000000000000
  0.7461418312636445   0.0313078740273454   0.0000000000000000
  0.3107174073396524   0.0599745523895525   0.0000000000000000
  0.3532197115457904   0.0593474026374948   0.0000000000000000
  0.7058944074605978   0.0354399891145804   0.0000000000000000
  0.6639684082655058   0.0395008030201497   0.0000000000000000
  0.3969170500997217   0.0580119078642495   0.0000000000000000
  0.6207078374111498   0.0434191086291270   0.0000000000000000
  0.5764634578798972   0.0471137381129498   0.0000000000000000
  0.5315950336908907   0.0505057458089039   0.0000000000000000
  0.4864703541532008   0.0535094607315534   0.0000000000000000
  0.4414549133024901   0.0560390636939180   0.0000000000000000
  0.9901595609719056  -0.0023783411927147   0.0000000000000000
  0.0326649145266362  -0.0334200843455863   0.0000000000000000
  0.9878329678703356  -0.0027145673674890   0.0000000000000000
  0.0733998606732272  -0.0440344159407381   0.0000000000000000
  0.9922372924577029  -0.0020726951087579   0.0000000000000000
  0.8846838814295012  -0.0208009306521702   0.0000000000000000
  0.9852539181750185  -0.0030832573491977   0.0000000000000000
  0.8205556230767344  -0.0253024477924150   0.0000000000000000
  0.9824277530968584  -0.0034836508822686   0.0000000000000000
 -0.0022154120548041  -0.0049277430541563   0.0000000000000000
[...]
POINT_DATA 4142
SCALARS continuity float
LOOKUP_TABLE default
-0.003208157449359466
-0.0032103906315890025
-0.003204314925646125
-0.0032131691475572074
-0.0032156689898350586
-0.003207415245689348
-0.0032182148936250837
-0.0032208567805009115
-0.0031937298227302786
-0.0032236963028014357
-0.003204898084591997
-0.0032263574804138103
-0.003568634156336281
-0.0032293723105634555
-0.0032323375626285363
-0.003387707399073155
-0.0032355170133339887
-0.0037911837006756634
-0.0012937660824736308
-0.0032390202668900136
-0.0007530066073180797
-0.003207349108980862
-0.001770950973457816
-0.00324295634529136
-0.0021883432393030953
-0.00012160221410334026
-0.0031956664345958122
-0.0032492216077272137
-0.0025516790258916194
-0.0028672731366614895
0.0005734570059751808
-0.00325707173733259
-0.003140886381542528
-0.003209730896976388
0.0013476253418635712
0.0037328059527458016
-0.003266392726230517
-0.003377939696263457
0.0043554721342217734
0.0021606532344674695
-0.0035830083997692662
0.004768089365424123
-0.003762267229439927
-0.0032767118063811835
-0.003204829199137246
0.002975348306006625
0.004912423015861659
-0.00391694693226141
-0.00330041551122982
-0.0032876776248700183
-0.003313875067313191
-0.004093514788638745
-0.003208376023425885
0.004772262892011697
0.004100663523322903
-0.00013371454613993495
0.0005608237181390713
0.0033171133217917066
0.002110421661859109
0.0013260694193612246
-0.0007623081932907847
-0.003328974228795505
-0.004248553416269448
-0.0032104898773328305
-0.0013016732194619754
-0.00334460562943916
-0.004399913706015931
-0.0033611454851565237
-0.0032131153991338487
-0.004509751717598898
-0.0033859821739673874
-0.0032157890891853676
-0.004582410487342443
-0.0017783543923610603
-0.0034204978854237545
-0.0032183260574165907
-0.004626007063053912
-0.0034702913536517298
-0.004645877593449392
-0.0046046013705774965
-0.002195437450627341
-0.0035275610724541627
-0.00457026573924807
-0.003220939456262241
-0.004534241641525825
-0.0046467935436576725
-0.004631884042531928
-0.002558633035601489
-0.0035914446860973188
-0.003662234128993387
-0.0032235949641475055
-0.004456186426678121
-0.0028740690187969305
-0.003741035778486809
-0.0038281884810522377
-0.00392325979113245
-0.0032265111713234125
-0.0043663539983204835
-0.004025098036111028
-0.003147508491616814
-0.003229377580163016
-0.004241549043844103
-0.004132497712528403
-0.0032325389553790147
-0.003384286514600593
-0.0035890100102155525
-0.0032355648810418465
-0.0037678149214003336
-0.003922065163482795
-0.003238723670635119
-0.0032432383089168685
-0.004098025645319013
-0.003249465935893994
-0.004252566053925139
-0.004403549634284048
-0.0032572876967100995
-0.004513147650507642
-0.003266751603638117
-0.004585535167139124
-0.003276806321500993
-0.0046288075867303375
-0.003288272675180581
-0.004648293854453729
-0.0033004548225802075
-0.004648780841890601
-0.0033142768857253578
-0.0046334788681966525
-0.0033287048618042027
-0.004605873369995319
-0.003344939373637752
-0.004571323171149525
-0.004535168746984751
-0.003361168452100132
-0.004457045419211445
-0.003385833433222573
-0.004367207173783105
-0.0034223273289254843
-0.004242455056827476
-0.004133419375648919
-0.0034708624607539236
-0.00352790708258455
-0.00402601977914951
-0.0035918992472392343
-0.003663017662763988
-0.003741901927704983
-0.0038290742222973984
-0.003924144191510496
-0.003209024840892566
-0.002668340506882348
-0.0032105545212175713
-0.004272946865942193
-0.003203986170398959
-0.003275555146104189
-0.0032132816584605193
-0.00334260810000882
-0.0032156884030516957
0.004601378003672293
-0.003214249691137866
-0.0008012537471315964
-0.00321819495056015
0.004876055530875252
-0.00322081572841539
-0.003209762146422279
-0.003181430717139853
0.002900153729061885
-0.0032236167487523443
-0.004098740639105888
-0.0032571929383758934
-0.0032881208452250348
-0.00322625224828094
-0.0033270244860483366
-0.003194604035742019
-0.002935132038383889
-0.003229243796118579
-0.0002318686200242198
-0.00323219834657096
-0.003193754958276179
-0.0033889890068092626
-0.003402112404724575
-0.003324330053340673
-0.0032982198424298835
-0.0032809472772123
-0.0032956592328939587
-0.003313978394290278
-0.0032353709233867954
0.00185171078155402
-0.0031276347663038544
0.004897052071678012
-0.0012081364101836239
0.0026464275157144137
-0.0032388416980754006
-0.0029289881264769474
-0.0006549301004679735
0.003569598460153068
-0.0032597657554027278
-0.0031734135787581576
-0.0016952282217030062
0.0011029096151599373
-0.00324284419395372
0.0038818649143204384
-0.0021215684845040743
0.0004047240047884116
-2.122380227193638e-05
-0.0032713403801468495
-0.003178831039602669
0.004303927891208076
-0.0032490447056222485
0.005002804685755468
-0.0024929316635662383
0.00478599824538709
-0.002815689335979483
-0.0032025633503080663
0.0006857424993966564
-0.00320817931425817
-0.0032568940265235045
0.0038431866534902248
-0.0030956565440218224
-0.0038982346979969666
-0.0032162688756157613
0.003553830179777018
0.0014563916558303568
-0.003311956777904807
0.0037965407800389186
0.0037335240926884353
-0.00326621602854929
-0.0032858187368576667
-0.003338111351275935
0.004987097722175542
0.004395175870943596
-0.0032985374993331706
0.0022619950132778104
0.0038903057819304975
-0.0035479126929439274
-0.0037201425530039504
0.004789378730310143
-0.003395065013105885
-0.003732014060800123
0.004937163782961213
-0.003276528006540031
-0.0031988764572867716
-0.003204403980051217
0.0033106850209506924
0.0030613633700849333
-0.0032949107222595675
0.004922518117598838
-0.003203626398754789
-0.0039019284553516694
0.004966260134451008
-0.0033002311114195076
-0.0032748796554609534
-0.003287479158974034
-0.0032822356946146966
-0.00331368428053184
-0.003530110444818722
-0.0040574365322194805
-0.0032647472222582467
-0.003209304527775523
0.004828030364587484
0.004758169458133261
-0.0033082607370319484
0.004221280646798059
-0.003323653289475474
-3.332009175052577e-05
0.0038207517739353805
0.0006760106170376174
0.002584986223146878
0.0033283402841740592
-0.0036080426469003225
0.0022829821886597226
0.004489130427963296
0.0014500634636875377
-0.0026783023069378124
-0.0006645834298375016
-0.0030889110175202276
-0.003328786235103128
-0.003206141713751212
-0.004234134974414534
-0.003264581203718433
-0.0032106614960271417
-0.002405010405605346
-0.001216362708366304
0.003964962162437231
-0.0033444072477233633
0.004845247361732725
-0.004384877637989471
0.0018367825148957483
-0.003360835634995974
0.004928373472303925
-0.0032132370452990456
-0.00320873735960493
-0.004497775483132218
0.004421310593881016
-0.0033859336928046564
-0.002819750644552172
-0.003215810028504773
-0.0031858669603645985
-0.004572748241809069
-0.003255275467001545
-0.0017028122094862274
0.0008969468264595525
-0.003420227435670894
0.0011034791336156403
-0.0032183018586419516
-0.002415460370201412
-0.004618070293505426
-0.002511311113632726
-0.003470060588920657
0.0015552693501913455
-0.004639288955213441
-0.0021589243024195633
-0.004600631068907884
-0.0032763758965930977
-0.0021287267600245035
-0.0032474433169969504
-0.0035273021402083445
0.0037962977764349213
-0.004566867525821558
-0.0031833999406224215
-0.003220887303311157
0.0031423750493153224
-0.004532748321353904
0.0004132904903155979
-0.004641287714289293
0.002991688352391684
-0.0046272672143240915
-0.0017578933298295115
-0.0024999023341956556
0.004737732412032598
-0.0035911474199057393
-0.0032412720451675905
-0.003661892086092582
0.002255797720139422
-0.003223511717884161
-0.0013036417936828893
-0.004452331946706329
0.004669051793575277
-0.002822479344430776
-0.0032280512552318326
-0.003740629879644374
0.0002868573850225265
-0.003827698697084189
-0.0002228871599617355
-0.003922661135592791
-0.0032640268523376485
-0.003226409798851018
-0.0032372512606277017
-0.004365037454945562
-0.003323254534452914
-0.0040243533242947825
-0.0007927093644201526
-0.0031022755695698846
-0.0021294433726148153
-0.0032292569382359674
-0.003048877269227357
-0.004240264675277014
-0.0038449660729909687
-0.004131541748019647
-0.003233756317334185
-0.0032324034779386444
-0.0032346706932594176
-0.0033444804212276477
-0.0032306015645058145
-0.003553952160481037
-0.003207414143536097
-0.0032354191095700716
-0.0032276823093300524
-0.003737598466588206
-0.0032545551908775066
-0.003907078693096419
-0.003022890463991141
-0.0032385514255876126
-0.0002704513374463614
-0.0032431423665834117
-0.003224718334610712
-0.0040619866182596675
-0.00328932370396979
-0.003249291255409321
-0.0032251200655852423
-0.004238167065546951
-0.003338747184106502
-0.00438852535527456
-0.0032221437114956326
-0.0032571149017546755
0.00425692255153135
-0.0045011840548018316
-0.003181696329153716
-0.003266574351870492
-0.004057254273713898
-0.004575882009192756
-0.003219404384190449
-0.0032766229038862097
-0.00309730740123383
-0.00462087908597636
-0.0032168830038837694
-0.0032880912139326
-0.003355080433229629
-0.0046417120057962915
-0.0032075047449784673
-0.003300270224373464
0.0025219506369801273
-0.004643279309481341
-0.003214494074700206
-0.0033140896519429264
-0.003209574480072243
-0.004628866965595044
-0.003212245867331032
-0.0033285129646229168
-0.002672841544094024
-0.004601910999919286
-0.0032032184724488056
-0.003344742192779557
-0.004224299130056852
-0.0045679236077840555
-0.003209650849537758
-0.004533676892643048
-0.0032007793289318127
-0.0033608583747775003
-0.0032079952101731336
-0.0044531974234182795
-0.0033799817496971444
-0.003385788888550255
-0.0032721488201464853
-0.004365889628650116
-0.0016951973573973943
-0.003422056435397302
-0.0032660549737443785
-0.004241177332877894
-0.003211780833164919
-0.004132464150817278
-0.0032764916700485595
-0.003470628282856048
-0.001817118393964686
-0.003527648358570399
-0.003265417043595243
-0.004025279350266643
-0.004344052213087264
-0.003591603349334164
-0.003294387583293218
-0.0036626709974163945
-0.0031954315240387008
-0.0037414990486777586
-0.003923042867453851
-0.0038285836287725275
-0.0007798821220670172
-0.003923547212929514
-0.0032944696502286114
-0.0033590302056316786
-0.003253413564216597
-0.0032122137557742607
-0.0032610738917492163
-0.0044055070952995785
-0.0033013363346778243
-0.0033840636004919683
0.004137665972515854
-0.0032146252606122835
0.003250139952216388
-0.004496361115922789
0.002219273347384991
-0.0013116336002182614
-0.0031793832531943358
-0.0034182156027273013
-0.003206918436538309
-0.003216984262393524
-0.002147205883973573
-0.004554419110854725
-0.0023682850970572237
-0.0034678524014138236
-0.0032016529988171754
-0.00458589874196941
-0.0032517831276912103
-0.004568142007920474
-0.0019376289432520427
-0.0017653447837028989
0.0015439968726161245
-0.0035248417859013678
0.004870067450971323
-0.004539061465813784
-0.0020313098763163964
-0.0032194787936099217
0.004905219256552955
-0.004508808855743484
-0.0016545545429673405
-0.004596249200530238
0.004496006786561037
-0.0045890923463727095
-0.0032440040679401574
-0.002166042187324832
-0.003174338233800122
-0.003588361620854566
-0.003190518695604375
-0.0036586654052092257
0.0013146450752054186
-0.003222038667379805
0.0008985095059060958
-0.0044324853693800716
-0.0018838829353757993
-0.0025181893013201417
-0.0012356711583567832
-0.0037368154476654
-0.0033722560216808235
-0.0038230948141301548
-0.00323791751206887
-0.00391699040901128
0.0019279372971269233
-0.0032248808061187337
-0.0007723292245827014
-0.00434960166630544
-0.003256840629211685
-0.00401723412805985
-0.0032227514777832663
-0.002826422255266148
0.00395331172741425
-0.003227685651841696
0.00029257540623676753
-0.004228458092077976
0.003307102924450264
-0.0041224393891288276
-0.00323386565186868
-0.003230808828894056
0.0032557203222030586
-0.0030953228140440563
-0.0002632120307452562
-0.0033297466151321676
0.0045589203211423845
-0.00323381746886944
-0.0031608211702840567
-0.0035357925717977618
0.0025791377851027424
-0.003725398258036706
-0.0032303342271933905
-0.003236979176263631
0.0046783438119627875
-0.003241584165433938
-0.0032271925905410148
-0.00390292182315069
0.0007446940976928235
-0.003247686796315483
-0.0032243064548815557
-0.004102885791019498
-0.0032449114863562166
-0.004276678838760377
-0.0031718695407374218
-0.0032554985720905432
-0.003316173136185967
-0.004408973598110294
-0.003221384754151904
-0.0032649445613520604
-0.0016045319752989223
-0.0044995476723615965
-0.0032231147569329196
-0.0032749780541248574
-0.0034510671875430878
-0.004557282148300061
-0.003218887142165003
-0.0032864266240504947
-0.0032044730925300732
-0.0045883825199585235
-0.003191245553603037
-0.0032985802533982383
-0.0032029117260219914
-0.004598301780342572
-0.0032162284938351093
-0.0033123706905024597
-0.0032433669283642866
-0.004590750220685852
-0.0032138223102442017
-0.0033267592100928
0.00022071886079932097
-0.004569468108482082
-0.0032062854586558153
-0.0033429527536801454
-0.0032692943757889107
-0.004540160739235658
-0.0032115929552678528
-0.004509766710327875
-0.003331495310542971
-0.0033590636901732695
-0.003209591245058509
-0.004433373781587311
0.004312637882711911
-0.0033839220161151736
-0.003202259102799997
-0.0043504679626661415
-0.0037093729218754166
-0.0034200414737284753
-0.0032072789494842734
-0.004229378934755763
-0.0011647188856606517
-0.0041233705035225365
-0.0032059886579065525
-0.00346842247108504
-0.0033476289372351364
-0.0035251992924089435
-0.0032705427158304535
-0.00401816693399408
0.002738737801518997
-0.003588819710769839
-0.0032754713658837737
-0.00365945345059734
-0.003204778253107999
-0.0037376933487087115
-0.0032724151862740546
-0.0038239922198845464
-0.0021926037525439243
-0.003917885760230693
-0.003276868986137946
-0.0032453263504055047
-0.003413821875020429
-0.001587785710821583
-0.0032139574557477277
0.0019027927067120237
-0.0044259960454933415
0.004843891356130313
-0.003463056064366442
-0.0014757292100718393
-0.004477169632460425
0.004826766320729856
-0.004500602009203951
-0.0011030948207667692
-0.001242956357873001
0.004515261636342363
-0.003519515663893625
-0.003237634080443405
-0.004481065837685712
-0.003155589756980712
-0.0032163227329989703
-0.003189986959096812
-0.004458967622678704
0.0016301447442030065
-0.00450381152260704
0.0013071494445472712
-0.004510201954048608
-0.0014493032278848903
-0.001661658671418135
-0.0006969856527521139
-0.0035823163422223107
0.002205767037580973
-0.0036516747541668316
-0.0002548959696419011
-0.0032187830670537404
-0.003225173427006127
-0.0043909602183560634
-0.003206253770478535
-0.0020381692693262603
0.004039415747594093
-0.0037285540817294394
0.000745340182255125
-0.003813136789277534
0.0034061974227247685
-0.0039047527167921604
-0.0032276335055896398
-0.003221568541732928
0.0034325838245010437
-0.0043170317324919254
0.00022530025785972012
-0.0040019128270871555
0.0028324649830470325
-0.002374969104472083
-0.0031522190446331734
-0.003224319016211261
0.002812924270363271
-0.004203333452649651
-0.003224068921371483
-0.004102938287537764
0.004630278226746211
-0.0032274211173659497
-0.003220935640322889
-0.002674801489480437
0.0010941857267405496
-0.0029412903717916726
-0.0032181089596411442
-0.0032304142135592398
-0.003214002532483625
-0.003179194165166276
-0.003149278230342663
-0.003400459674670182
-0.003303857336296478
-0.0032336092581469757
-0.0032152408871308526
-0.0032382525525234593
-0.003194871627049524
-0.003612877403499969
-0.0011901660554809953
-0.003244255545184902
-0.0032052509136884892
-0.0038492797136713414
-0.0029538424970386164
-0.0040611210530836165
-0.0032128882567181802
-0.0032520083148695356
-0.0031568866720722106
-0.004227874632540479
-0.0031893521534897403
-0.003261442126173176
-0.003196350618963458
-0.004347335002632272
-0.0032103788139164805
-0.003271443369977362
-0.003224949438906762
-0.004428956725068721
-0.003208209083109264
-0.0032828524845967405
0.0006013808872630963
-0.004479758824558131
-0.0032001128751608433
-0.0032949568542941237
-0.003236740011279428
-0.0045059765512002895
-0.0032063112661961926
-0.0033086852355973207
-0.003318826964074256
-0.004511968526230552
-0.0032047052951088275
-0.0033229954461988995
0.004308557508596161
-0.004502025706865793
-0.003198482241404461
-0.003339103765521061
-0.003241810350082077
-0.004482243463274331
-0.003202718951984704
-0.004459980899366047
-0.0030897943362427197
-0.0033551285451806417
-0.0032015105162601066
-0.004391888455610872
-0.0033345964791601282
-0.003379853665291065
-0.0032355988047658942
-0.004317926297532984
0.00288590337400342
-0.0034156621944760896
-0.0032432977162587563
-0.004204279483087769
-0.0031975985044958664
-0.004103894781011853
-0.0032353611167383043
-0.003463634216241525
-0.0018156650099753055
-0.003519883515495446
-0.003231620166273216
-0.004002868166174127
-0.0034973829787694265
-0.0035827896084041286
-0.0032317827635602067
-0.003652474444047529
-0.0031865046029375343
-0.0037294473296525547
-0.003232066945127973
-0.0038140489067088417
-0.0033586806823160155
-0.003905666424579122
-0.0032316929149443724
-0.0013658785459824312
-0.0032066922738811527
-0.0013060570646418474
-0.004084744478221638
-0.003186616164743176
-0.00026112112241940833
-0.0032342793943323685
-0.0034054794507224254
-0.0013438058617813312
-0.0032085042631932515
0.0021666930334417597
-0.004203235950510587
0.0047652225215954235
-0.0034539270659572317
-0.0009843213985920713
-0.004285768195219828
0.004698523732786699
-0.0043781073902206735
-0.0006361726713495986
-0.0007035604488874426
0.004479785276881822
-0.003509346531327885
-0.0032267886461618944
-0.004375109688643546
-0.0006611086908167311
-0.0032105803528501564
-0.0031901677641107133
-0.004367238457215255
0.0018657975358940396
-0.004339142096121392
0.0016125812492792093
-0.004368280387794745
-0.0011371027998469555
-0.0011096930446779086
-0.0002578168585596938
-0.003570761408071227
0.0024083904621253144
-0.0036382850010444256
0.00015416647430032315
-0.003212824028044683
-0.0031748849379860423
-0.004314005517364268
-0.0032001584933909963
-0.0014823154867235654
0.0040631872082865
-0.00371272728244688
0.0010886991151669726
-0.0037940688084356633
0.0034474149374285772
-0.0038813584849169665
-0.0032170672288895303
-0.0032154870391987215
0.003535000716667331
-0.004256216113940023
0.0006024721523400819
-0.003972732711276722
0.004350214976021445
-0.0018236366105294822
-0.0031868698938122184
-0.0032181346798411284
0.0029724246629978424
-0.004156068252405049
-0.003213447090972944
-0.004065999677954506
0.004530689067701827
-0.0032212039957070547
-0.003210343592770362
-0.002135752114445033
0.0013560745763959018
-0.0024215459959215837
-0.003207625731545138
-0.0032241753998092397
-0.0031650742315285987
-0.0026840441525314905
-0.0031887124380919635
-0.0029343897658572044
-0.0032832904622454857
-0.003227397159484214
-0.0032048877940305887
-0.00318430228723611
-0.000893969342082896
-0.0032379025216992575
-0.0031999933235025294
-0.0034555186700708
-0.0024522115198624653
-0.003713398728737848
-0.003202835802488587
-0.0032455620012211495
-0.000570122887045524
-0.003926764004653814
-0.003189947778131366
-0.003254942059005293
-0.0031870858207993496
-0.004088163432618228
-0.003200683533172896
-0.0032648674246886977
-0.0031954301373838217
-0.0042063385765473815
-0.0031990885237085614
-0.0032761923255481148
0.0008849546187130622
-0.004288516754746599
-0.003194186931007685
-0.003288184637482798
-0.003184913562696833
-0.0043414751662609104
-0.00319798125067006
-0.0033017848338006283
-0.0032976245983322525
-0.004370215483712534
-0.0031972992197580132
-0.003315937637611987
0.004250952339979598
-0.004379685625342203
-0.003193273520025919
-0.003331870078478228
-0.0027302333035140727
-0.004376416691770555
-0.003196060415137906
-0.004368362280413158
0.0037112882915811187
-0.003347695424360166
-0.003195249369969082
-0.004315012424190302
-0.003312677223759123
-0.0033721462587257417
-0.0032327284462921944
-0.004257164556209135
0.0029722742748211884
-0.003407344625910228
-0.003238092813957478
-0.00415705267638102
-0.0031874941066036898
-0.004066993750052575
-0.003233363153020561
-0.0034545274633428274
-0.0015512677607195371
-0.003509738208663994
-0.003225240224297386
-0.0039737247055162475
-0.0029966396387367763