# vtk DataFile Version 1.0
GRUMMP topologically 2D mesh
ASCII

DATASET UNSTRUCTURED_GRID
POINTS 4142 float
  0.9902132100051211  -0.0013897599745845   0.0000000000000000
  0.9878682672001325  -0.0017209544766007   0.0000000000000000
  0.9922830260938109  -0.0010965337451688   0.0000000000000000
  0.9852627687065505  -0.0020876945602550   0.0000000000000000
  0.9824126515147726  -0.0024873693035198   0.0000000000000000
  0.9941016532545700  -0.0008382294190312   0.0000000000000000
  0.9793229395886266  -0.0029189889321549   0.0000000000000000
  0.9759912936709813  -0.0033826574903297   0.0000000000000000
  0.9957253756688895  -0.0006072067599891   0.0000000000000000
  0.9724158418644283  -0.0038783672872607   0.0000000000000000
  0.9972114818934485  -0.0003956828894990   0.0000000000000000
  0.9685983419668763  -0.0044053177853816   0.0000000000000000
  0.9986172604849257  -0.0001958749290171   0.0000000000000000
  0.9645418982154840  -0.0049624143705746   0.0000000000000000
  0.9602493276520160  -0.0055486932126648   0.0000000000000000
  1.0000000000000000   0.0000000000000000   0.0000000000000000
  0.9557225436143375  -0.0061636003738353   0.0000000000000000
  0.9986172604763917   0.0001958749302285   0.0000000000000000
  0.0136778115501445  -0.0198442283865115   0.0000000000000000
  0.9509632892996972  -0.0068066585239019   0.0000000000000000
  0.0111799405480040  -0.0180409152078963   0.0000000000000000
  0.9972114818757430   0.0003956828920181   0.0000000000000000
  0.0164236219435115  -0.0216216850259729   0.0000000000000000
  0.9459737546847580  -0.0074771440326796   0.0000000000000000
  0.0194159763686392  -0.0233724637256901   0.0000000000000000
  0.0089312659290954  -0.0162123970812813   0.0000000000000000
  0.9957253756403164   0.0006072067640564   0.0000000000000000
  0.9353156997544615  -0.0088958032333210   0.0000000000000000
  0.0226532123065557  -0.0250954152174871   0.0000000000000000
  0.0261336316774566  -0.0267893559859237   0.0000000000000000
  0.0068429846519911  -0.0142695304151425   0.0000000000000000
  0.9237713702124288  -0.0104115615140689   0.0000000000000000
  0.0298554003449755  -0.0284531869488138   0.0000000000000000
  0.9941016532123735   0.0008382294250309   0.0000000000000000
  0.0050308200222286  -0.0123013782195995   0.0000000000000000
  0.0012596550434314  -0.0062543845982477   0.0000000000000000
  0.9113626015789812  -0.0120184565864932   0.0000000000000000
  0.0338165365583016  -0.0300859006297539   0.0000000000000000
  0.0005600587198625  -0.0041872521188657   0.0000000000000000
  0.0034956879705714  -0.0103096477045821   0.0000000000000000
  0.0380150486067802  -0.0316864834866382   0.0000000000000000
  0.0001400674572995  -0.0020989425108620   0.0000000000000000
  0.0424489169588349  -0.0332538061244847   0.0000000000000000
  0.8981160449036193  -0.0137076729882106   0.0000000000000000
  0.9922830260341767   0.0010965337536290   0.0000000000000000
  0.0022384105171692  -0.0082946477552229   0.0000000000000000
  0.0000000000000000  -0.0000000005380880   0.0000000000000000
  0.0471161050109934  -0.0347866680569130   0.0000000000000000
  0.8692172420003259  -0.0173025512123363   0.0000000000000000
  0.8840586048664243  -0.0154712341935952   0.0000000000000000
  0.8536242589802903  -0.0191927756559575   0.0000000000000000
  0.0520144653095357  -0.0362838744017245   0.0000000000000000
  0.9902132099234322   0.0013897599861408   0.0000000000000000
  0.0001400673054027   0.0020989413744649   0.0000000000000000
  0.0005600583994229   0.0041872509286527   0.0000000000000000
  0.0089312642537700   0.0162123956290166   0.0000000000000000
  0.0068429832427153   0.0142695290019493   0.0000000000000000
  0.0022384098100130   0.0082946464730838   0.0000000000000000
  0.0034956870455263   0.0103096463775504   0.0000000000000000
  0.0050308188630767   0.0123013768482443   0.0000000000000000
  0.0111799386902237   0.0180409137864515   0.0000000000000000
  0.8373107726191357  -0.0211334926288444   0.0000000000000000
  0.0624935355792051  -0.0391666954139108   0.0000000000000000
  0.9878682670932252   0.0017209544916756   0.0000000000000000
  0.0136778095139640   0.0198442269960848   0.0000000000000000
  0.8203090273240524  -0.0231167391866414   0.0000000000000000
  0.0738633143603066  -0.0418930499584099   0.0000000000000000
  0.8026551811301268  -0.0251343400368426   0.0000000000000000
  0.9852627685719384   0.0020876945791685   0.0000000000000000
  0.0861021386417074  -0.0444536409739349   0.0000000000000000
  0.7843840873894279  -0.0271778197795966   0.0000000000000000
  0.9824126513500548   0.0024873693265746   0.0000000000000000
  0.0991843265815398  -0.0468392532814141   0.0000000000000000
  0.0164236197329729   0.0216216836667636   0.0000000000000000
  0.7461418339277840  -0.0313078737465108   0.0000000000000000
  0.9793229393907722   0.0029189889597428   0.0000000000000000
  0.1130825286139299  -0.0490420520078216   0.0000000000000000
  0.7058944105034720  -0.0354399888107516   0.0000000000000000
  0.1277704618123611  -0.0510562827506626   0.0000000000000000
  0.1762568929815641  -0.0559042078350805   0.0000000000000000
  0.0194159739879911   0.0233724623981675   0.0000000000000000
  0.6639684116827792  -0.0395008026994765   0.0000000000000000
  0.1937838883744062  -0.0571083155282771   0.0000000000000000
  0.9759912934368556   0.0033826575228533   0.0000000000000000
  0.2119350336566717  -0.0581032139582273   0.0000000000000000
  0.1432165586985055  -0.0528747491799113   0.0000000000000000
  0.1593891568184451  -0.0544918670991958   0.0000000000000000
  0.0226532097601106   0.0250954139222151   0.0000000000000000
  0.6207078411914361  -0.0434191082996254   0.0000000000000000
  0.5764634620046084  -0.0471137377839725   0.0000000000000000
  0.9724158415910057   0.0038783673250912   0.0000000000000000
  0.2306739249637577  -0.0588890260835713   0.0000000000000000
  0.0261336289695199   0.0267893547234291   0.0000000000000000
  0.5315950381341085  -0.0505057454921963   0.0000000000000000
  0.4864703588817339  -0.0535094604401647   0.0000000000000000
  0.4414549182767121  -0.0560390634426787   0.0000000000000000
  0.9685983416513994   0.0044053178288238   0.0000000000000000
  0.2697570606452168  -0.0598365819607799   0.0000000000000000
  0.3969170552729402  -0.0580119076690758   0.0000000000000000
  0.0298553974799863   0.0284531857194991   0.0000000000000000
  0.9645418978552561   0.0049624144199126   0.0000000000000000
  0.3107174127482247  -0.0599745523566999   0.0000000000000000
  0.3532197168655907  -0.0593474025151865   0.0000000000000000
  0.9602493272443249   0.0055486932681955   0.0000000000000000
  0.0338165335406938   0.0300858994339835   0.0000000000000000
  0.0380150454409591   0.0316864823247920   0.0000000000000000
  0.9557225431564565   0.0061636004358678   0.0000000000000000
  0.0424489136491938   0.0332538049970267   0.0000000000000000
  0.0471161015618897   0.0347866669642923   0.0000000000000000
  0.9509632887889385   0.0068066585927330   0.0000000000000000
  0.9459737541185675   0.0074771441085412   0.0000000000000000
  0.0520144617255517   0.0362838733443521   0.0000000000000000
  0.9353156990700551   0.0088958033238094   0.0000000000000000
  0.0624935317401540   0.0391666944281135   0.0000000000000000
  0.0738633102849253   0.0418930490455120   0.0000000000000000
  0.9237713694002159   0.0104115616199952   0.0000000000000000
  0.0861021343485112   0.0444536401350998   0.0000000000000000
  0.9113626006299211   0.0120184567085017   0.0000000000000000
  0.0991843220904188   0.0468392525175462   0.0000000000000000
  0.8981160438094651   0.0137076731266115   0.0000000000000000
  0.1130825239435962   0.0490420513187447   0.0000000000000000
  0.8840586036192291   0.0154712343488011   0.0000000000000000
  0.1277704569818227   0.0510562821360933   0.0000000000000000
  0.8692172405930260   0.0173025513845012   0.0000000000000000
  0.1432165537277111   0.0528747486397878   0.0000000000000000
  0.8536242574066383   0.0191927758449732   0.0000000000000000
  0.1593891517258480   0.0544918666322352   0.0000000000000000
  0.8373107708732270   0.0211334928345504   0.0000000000000000
  0.1762568877862003   0.0559042074398506   0.0000000000000000
  0.8203090254010921   0.0231167394087162   0.0000000000000000
  0.1937838830953411   0.0571083152030304   0.0000000000000000
  0.2119350283118140   0.0581032137003017   0.0000000000000000
  0.8026551790260408   0.0251343402747870   0.0000000000000000
  0.2306739195716207   0.0588890258904683   0.0000000000000000
  0.7843840851007032   0.0271778200327233   0.0000000000000000
  0.2697570552113356   0.0598365818878674   0.0000000000000000
  0.7461418312636445   0.0313078740273454   0.0000000000000000
  0.3107174073396524   0.0599745523895525   0.0000000000000000
  0.3532197115457904   0.0593474026374948   0.0000000000000000
  0.7058944074605978   0.0354399891145804   0.0000000000000000
  0.6639684082655058   0.0395008030201497   0.0000000000000000
  0.3969170500997217   0.0580119078642495   0.0000000000000000
  0.6207078374111498   0.0434191086291270   0.0000000000000000
  0.5764634578798972   0.0471137381129498   0.0000000000000000
  0.5315950336908907   0.0505057458089039   0.0000000000000000
  0.4864703541532008   0.0535094607315534   0.0000000000000000
  0.4414549133024901   0.0560390636939180   0.0000000000000000
  0.9901595609719056  -0.0023783411927147   0.0000000000000000
  0.0326649145266362  -0.0334200843455863   0.0000000000000000
  0.9878329678703356  -0.0027145673674890   0.0000000000000000
  0.0733998606732272  -0.0440344159407381   0.0000000000000000
  0.9922372924577029  -0.0020726951087579   0.0000000000000000
  0.8846838814295012  -0.0208009306521702   0.0000000000000000
  0.9852539181750185  -0.0030832573491977   0.0000000000000000
  0.8205556230767344  -0.0253024477924150   0.0000000000000000
  0.9824277530968584  -0.0034836508822686   0.0000000000000000
 -0.0022154120548041  -0.0049277430541563   0.0000000000000000
[...]
POINT_DATA 4142
SCALARS continuity float
LOOKUP_TABLE default
-1.862293805516166e-05
0.00013482320945439714
-0.00020694798511471495
0.00022034220093415877
0.00027010931136154954
-0.0005484261149719292
0.00028268945253402824
0.0002606292699591743
-0.0011759007040974927
0.00020187073701925966
-0.00010945109895332564
0.000145797995832044
0.0015167504276358856
4.755363239451597e-05
-3.9192126819591585e-05
0.00019328157455565965
-0.0001409153491860858
-0.001135589073089036
-0.008301950588432151
-0.00027765022721987226
-0.008362932761374611
0.0004088309549407853
-0.008138840722640199
-0.0003891296277528644
-0.007920029563426198
-0.008619347984544671
0.0014030594202279827
-0.0006136340865438234
-0.007664958215043368
-0.007377185723903774
-0.00847108969273989
-0.0007741479529149025
-0.0070636085807744
0.0008191463403313446
-0.008385888774522765
-0.0062285534486408905
-0.0009841533768667277
-0.006740904432340926
-0.004518436383081498
-0.008043869087642281
-0.00644462707474504
-0.0025066377798997584
-0.006176695497504129
-0.001206180767334929
0.0004755122111813969
-0.007365400209389539
0.0003574120325274729
-0.006002705752468458
-0.0017146511479298756
-0.0014327685430543906
-0.0019837607359143522
-0.005648594544689635
0.0002813933722008692
0.004941835002068114
0.00047664176150592785
0.009806022151670033
0.009758693422370677
0.012771031944843645
0.006257342350742569
0.009012192318941157
0.009438155491843528
-0.002290337019899115
-0.005135144916746405
0.00013107962852926413
0.009224559335226179
-0.0025847990729862633
-0.004202582805355333
-0.0029092644661907158
4.63595891381158e-05
-0.003468121238795701
-0.003235077173386569
1.6694984749389765e-05
-0.0028873728594744257
0.008910356220756423
-0.003795472973495047
1.2884422493805876e-05
-0.0024199325291769636
-0.004488837165291776
-0.0020152202776851018
-0.0012213564696155908
0.008562093658786159
-0.005135661130939015
-0.0011745188495066769
4.246352956348651e-05
-0.0012461180916149308
-0.0016726005869167977
-0.0013981679889942021
0.008199789487877637
-0.0056442466192417615
-0.005978086359913174
9.005043426908093e-05
-0.0016103039833076957
0.007818704583605491
-0.006058969863363223
-0.005811352567398658
-0.005207587044981999
0.00017306303554319883
-0.0020389155484409633
-0.004330575050246691
0.007429252907136705
0.0002512041710816083
-0.0026405798392228606
-0.0033994461300880987
0.0003616884807260915
0.007040688217029082
0.006689032483640724
0.0004474471941944204
0.0063759316070982385
0.006152576614056709
0.0005463781843302253
0.0007109973307262654
0.0057678994382072786
0.0008921509548991525
0.005185589123891302
0.004214928755561995
0.0010653634178207057
0.0034438868038654427
0.0012563104857750927
0.002837027738616664
0.0014533443456971747
0.002354406832381172
0.0016965760416594662
0.0019417159161991414
0.0019365843363482156
0.0015957414117639735
0.002207790409369004
0.0013207494425779543
0.0024802742675703194
0.001143223708181471
0.0027441822095080246
0.0010936530902470412
0.0011582401491686243
0.0030978516545052594
0.001524322092098586
0.003273219886349067
0.0019293574075330674
0.00393705564160519
0.0025012267889860033
0.0032069986220025467
0.004445649681906261
0.005048361165160979
0.004083855629376429
0.005479948047196961
0.005744753821348221
0.005780086772021034
0.005514573708289369
0.004922495481696845
9.805304566002547e-06
-0.006456401147501133
0.00016674546351757804
-0.004531617354959466
-0.00012500820189249352
-0.001714107674401943
0.0002421878706379714
-0.0026143942237062375
0.0002875160022345378
-0.0019078350638627585
-0.0005096123991032553
0.008447616970666304
0.0002957986750372747
0.00037418216405037157
0.00027154666910362787
0.0001807296230170203
-0.0007536267423296257
-0.004180126459424546
0.00020949940754165825
-0.005527987111408607
-0.0010463502441189522
-0.0019888491505873234
0.00015150206510141647
-0.002321001794465292
-0.003866085123011277
-0.006423622418776026
5.077678076962791e-05
0.008219370381403624
-3.7265578350817754e-05
0.0007516658117896915
-0.00010751877362475605
0.0004459270492802752
-9.211042528089557e-05
-0.0002021323656649044
6.769340018034149e-05
0.0003852230050760985
0.0004169481839668198
-0.00013942331171081207
0.0061202915242319494
0.004113545532807527
-0.0009206717174953035
-0.009468378281725455
0.004009637615601242
-0.00027478788334933966
-0.005631908438274394
-0.009566361703516692
0.006044260311783348
0.001269455902846964
-0.006359347663933652
-0.009210777690639268
0.007355676196166592
-0.0003918006476365115
-0.002722645296441033
-0.008861446522635315
0.007905587456571038
-0.009637870902266357
-0.0013333995112155604
0.0009802582417495211
0.0022358765299089474
-0.0006098113518469406
0.0004242482098669293
-0.008460413697135334
0.0026824248957921654
-0.008033299814152678
0.0005294790211637299
-0.009323525134398549
0.00031669969083372794
-0.0007697389236662479
-0.00325901506649106
-0.0075921881724806285
-0.005972449260277066
0.0007859314700171945
-0.003589856373835245
-0.008800131050992876
-0.0020164472679890565
-0.005331652072770905
-0.003345353060786694
-0.0009789797336100445
-0.00146911138790788
-0.007154548997480236
0.00047010831379663083
-0.003629167953613799
-0.0017493121222265913
-0.007936197301216762
-0.0030349183836565993
-0.006763301864244472
-0.0064406051121630925
-0.0017565493257869237
-0.006414530654687293
-0.006419323585448068
0.0005709216791094363
-0.0011998434634491152
0.000654005182075345
0.00039300555799804933
-0.004241166275061126
-0.006766760145853563
-0.0018357525010041916
0.0004053074518475756
0.0005233918507391088
-0.006213319243315607
0.00039667073636798493
-0.0017073763481548912
-0.0012429519240161507
-0.0014265677473296152
-0.0015578228333435673
-0.001976082479757853
-0.006571829804376578
-0.005697658601808608
-0.001492776206265051
0.0002532912855420608
-0.0010629423749897754
0.003632690692156532
-0.0021009487479759963
0.0029426938157348544
-0.006831430298842835
0.010763162105830755
-0.0023884566653577122
0.01048989088383511
-0.005061943730176929
0.009193406326865244
-0.006081189683230168
0.00645240911475862
-0.002201396416626956
0.00917249017482892
-0.0053344908638684055
0.010618352875310858
-0.0070994190397917515
-0.0022819188849776077
0.0003818505289342736
-0.00519255291722048
-0.0010220067355192217
0.00010029676914128144
-0.004203456198978094
0.010374116376257736
-0.0032957387295087666
-0.002575420208261598
0.0022246635853883576
-0.004198524514401027
-0.0057815496323898015
-0.0028904504275601805
-0.0008256639383912277
2.586086882281691e-05
0.000775240473112992
-0.003425817056520301
0.0021217303224666632
-0.003236738506208864
-0.007372139375025555
5.733584361492217e-07
0.0009317499414790361
-0.0028202217487616837
-0.0008117386317355155
0.009959625721014153
0.006148310934208368
-0.0037808552802586094
-0.006375361189721459
7.106952240374103e-07
-0.005174509913939178
-0.0023393424875799633
-0.007601167063282414
-0.004476040461060196
0.005855741256705951
-0.0019280685649497992
-0.007757397099961909
-0.0011331460995398566
-0.002232226197918408
0.009480639425073904
-0.0006519895006401404
-0.005121512989777531
0.005052154968829868
-0.0010919279080404175
0.0015959106263023623
3.389274713097969e-05
-0.003913283636028047
-0.0011801425295492436
-0.006932160323067781
-0.0015830515708119169
0.0038173805440243932
-0.0013084248914797282
-0.007822770554472523
0.008973477266654768
0.0003533598287570872
-0.005627885883035013
-0.00043247784407083803
-0.0059585155421548845
0.0050918556714878525
8.389794906555972e-05
-0.007780404063704128
-0.001510404438016338
-0.001746485542728124
0.008455873906296646
0.000851490731279055
-0.006035609779407358
0.006322349246740681
-0.005782946852845623
-0.00726958964085336
-0.005173480979414288
-0.0019617575999475107
0.00016938380083654172
-0.00031804944818671717
-0.0019775703535360144
-0.002403520249689065
-0.004289835272159498
-0.007604505134751063
0.007939138320855806
-0.005008624542586408
0.0002487317615836907
0.0053947862722537035
-0.002587103140524448
-0.005820296083251787
-0.0033523247274355253
-0.00018443958852474207
0.0003605094278058118
-0.002112998749210724
0.007436740537138001
-8.559258645167141e-05
0.006991907753524038
0.0002734608588181925
0.00044707590073863316
-2.0352657291765605e-06
0.006602168541821887
-0.0012745645526583498
0.006352523026959274
-0.005375297687469443
0.0005432886730509866
0.006495574842152191
0.0007143196747391462
9.456546383622293e-05
0.0058019737827873525
-0.0024884529454972564
0.0008884735224034877
-0.0005195653730451645
0.005233404999685165
-0.002695635601275478
0.004202828653398128
0.00014780640145168643
0.0010615250239924454
-0.0026209258256707645
0.0033950419428684544
-0.0013723782077803193
0.0012513967346378034
-0.00489978286740108
0.002764483752709279
0.00020544659058825226
0.0014478655809662146
-0.0037762152110296693
0.0022692872322980532
0.0002266209998898175
0.0016902890164433794
-0.0030127714954855333
0.0018508248900826962
-0.0004885946697816256
0.0019295539019936357
-0.004312075208319704
0.001503509433089001
0.0002158948748659201
0.0022002239496955343
0.0002108683906755418
0.0012290480124150548
0.00016993625425639646
0.002472187823310306
-0.004279169475372412
0.0010528582267153594
-0.00025068356767061903
0.002735269663749531
-0.0041672640410646165
0.0010089956963546143
9.369069100335212e-05
0.0010913653811194907
0.0008123500801236405
0.003078640188693108
-4.698706506764936e-05
0.0014241083619775316
-0.0033530834989856633
0.0032747195335489456
0.0006787433812366277
0.0018680771434933284
-0.0031609224775910965
0.003922336241446723
0.0010631778569988929
0.0024477852046638285
0.00019428260682096408
0.0031599321130573762
0.0001684373314035604
0.00443301051331035
-0.00488245541065933
0.005034173915598651
-0.0007595657545265954
0.004043745381022363
-0.003552691338536787
0.005463300892182691
-0.0008666976642673645
0.005725008082497586
0.0006386770452021418
0.005756837909019572
-0.004438972257024979
0.005486206079887594
0.006614183137795423
0.004888984774173979
0.0011972572106423124
-0.0029326709253753645
-0.0017448077153246657
0.00010410405155932635
-0.0011132124192997053
-0.0037440823914705636
-0.002250755168685185
-0.00327409224697638
-0.002831104525986526
7.772739974268676e-05
-0.00235595443255884
-0.003110540599575507
-0.004619210421110762
0.008493604080243036
-0.005557843795370051
-0.00382171559342741
0.000746648481242343
7.311168315586292e-05
-0.003910511584197456
-0.0025990300563747564
-0.006466640022265524
-0.004513339818001594
0.000494306875164717
-0.0021585436592207177
-0.0009039550574122382
-0.0012798752301015775
-0.003151090857706309
0.008417180905594361
-0.004939340620039087
-0.005156213468370183
0.001921154807827057
-0.0012075613882365304
-0.006412345262138846
0.00010126752270848334
-0.0007628919226297958
-0.0012673007028006762
-0.006292926500726568
-0.0017855558199991036
0.001999724193988419
-0.0014836431175602525
-0.0007470085752755357
0.00824769998950866
0.001170002119982454
-0.005661106285466981
0.0009468392333792452
-0.00599009627007071
0.005538985266935567
0.0001462195962772772
-0.005229954397325772
-0.001583185278813684
-0.003806047691003753
0.008000998963551791
-0.006123815827446333
-0.006065679221700215
-0.0034926547806951227
-0.005811562887336235
-0.0005289579859887418
-0.005201887202247562
0.005386444413650094
0.0002270475187393661
-0.005917884969467917
-0.0020350735948154643
-0.002585607172495187
-0.004321538632042419
0.00110046796245431
0.007698305534646017
0.004335183154039781
0.00030128042795201905
-0.005423413646473036
-0.002637876237192945
-0.0038587390824906284
-0.00339284614658975
-0.0004179961961402954
0.00040953838975572106
0.003955488734060771
0.007358832695438199
-0.005682782295566727
0.007038639846959622
0.00033565452729438584
0.0004932614008256119
0.001265228695832159
0.006735163472256506
0.0048339745724045
0.006558633633228262
-0.0002853837600619478
0.0005888999750161559
-0.0016669840992779947
0.0007570535626285095
-0.0001895727522655709
0.006057522259544643
0.005537278705097218
0.0009317466672115081
-0.00011053133919583227
0.005550429682611256
-0.0023224887576406964
0.004520606097088469
-0.0010588992863989988
0.0011050015913320436
-0.0025500502987794394
0.0036996093445483226
-1.539902954359388e-05
0.001295701082193638
-0.0037758101921486534
0.003043032940709748
-0.0008226901165857028
0.0014921784261913579
-0.005625037363695216
0.002518574311394609
3.3147505451416344e-05
0.0017340102635337582
-0.002597438342556855
0.002072244472244372
-0.0007010984975878857
0.0019719785251404247
0.00041449702063654456
0.0016982303129227706
9.048549352705468e-05
0.002241566692290518
-0.001530251443678745
0.001397547444532833
0.00011265176963235049
0.0025126012498363076
0.005473793010620691
0.0011951576666666293
-0.0004611766716789995
0.0027746440838284877
-0.0028338579877682565
0.00112134502167074
0.00010547088423294983
0.0011763207249158882
-0.00283944062031732
0.0031221672847276936
6.763608165193677e-05
0.0014958618261173159
-0.0025233103827915957
0.0033132460101408263
-0.0002500616881345988
0.0019263209966597595
-0.004957386332301075
0.003963693392897794
6.950432441296201e-06
0.0025005389844814686
-0.003742033153195968
0.00320285732025021
-0.00010853101439233691
0.004470399778234896
-0.0031542088484240887
0.005069555396375162
0.0005439799542657051
0.0040782989492201315
-0.004318117268799105
0.005496857746225891
0.00017985707693069194
0.005757119529301905
0.0003678690778386938
0.005787525947878058
-0.0002045532137916458
0.005516262381030062
-0.0030280075878727
0.004918821208157082
-0.0003350719806685334
-0.0010672872024423319
-0.0039001421839130147
-0.0030374012361740563
0.00019224786259739148
-0.0045455691064727015
-0.003035213077308677
0.0017226663622910443
-0.004587975829775973
-0.0047800952259183386
-0.002574407353217401
-0.0006605576825809559
-0.0015809030838879964
-0.004703380887824248
0.006713054735893065
0.0019890813781597294
-0.0052261743147333315
-0.0009131625193409911
-0.0014597972193044699
0.001524452190378489
0.00022079631559001817
0.0012583840298596067
-0.0014770024806412937
0.005528368190385286
-0.002170879823511153
-0.004669914139261977
-0.0018305169148993604
-0.00333756909665775
0.0067838838818592
-0.004666214183697255
-0.005726259975664191
0.005318437798391908
-0.0060500230106874
-0.004668868765439478
0.0002631866927956442
-0.0030446854377148276
-0.001748663648014756
0.0011645424837303914
0.006807987282347277
0.0038682425523471203
-0.006119882120571066
-0.0046804328703777065
-0.005861257636617779
-0.0036582144582715443
-0.005250435229093239
-0.0005908474907187358
0.00034202778168966516
0.004035957984666296
-0.002167568378722331
-0.004679513049931459
-0.004376724735543412
-0.001141062666540644
0.006780241857816181
0.002715499669314852
0.00041167141049578706
0.004789119149767196
-0.002736632472940186
-0.0004612907510611793
-0.003464986679119905
-0.0015030743372717278
0.0005178213659931222
-0.00037010216783167876
0.006701592875394457
0.005556823068981465
0.006606116946988472
-0.00029668282500755494
0.0005971144860542905
-0.0027944246066113486
0.00649380752316535
-0.002496388178121862
0.006498886745864241
-0.0027827607416727952
0.0006905308615694919
-0.00020259085074046519
0.000856860174914105
0.000854342140261696
0.006133890535783751
-0.0035811248507206426
0.0010288284812215436
-0.0008611116664859369
0.005810160621461351
-0.004557267536878834
0.00485615737613717
-0.00015890411376400676
0.001200318506498157
-0.0031258107626669944
0.0040922626449505
-0.0010014983926509853
0.001389440830824358
0.0005974694993430892
0.0034569239970857705
-9.789555524473589e-05
0.0015850258999507857
-0.001904519994747674
0.0029292025004851083
-6.92625100388952e-05
0.0018251684819973414
0.0054545083944786635
0.0024650498788105733
-0.0005174516801729548
0.0020608828622622954
-0.003277080305145639
0.002062881540346519
-6.493385545554235e-05
0.0023281293257270933
-0.003068114729654769
0.001727129969698643
-8.62739806739467e-05
0.00259697094644848
-0.00231111503640728
0.001481691542153979
-0.00036779447658639856
0.002857464097786849
-0.004275078019276428
0.0013626154304795645
-0.00012892981002648538
0.0013775430585007118
-0.0035976129234423673
0.0032039438491933622
-0.00021673776556208163
0.0016569222395602973
-0.0033770327558189533
0.0033931499817039
0.0009117727083908989
0.0020583844427259695
-0.004173282373127211
0.004042989319462969
0.00014650688723541697
0.0026024246532878955
0.0005725956528448115
0.003279337423359239
-0.0006295248360858284
0.004545478000579015
-0.0026431821910106955
0.005140117079371962
-0.0010199581947864383
0.004137278952907613
-0.004141444982528633
0.005562762862119231
0.001290351629329935
0.005818328440891186
0.001002599842810238
0.005844081641592047
0.0010298273841459237
0.005568792951028907
-0.0037113805289096355
0.0049714530038655206
-0.0006966535164525233
-0.003317628548896615
0.000368659063265942
-0.0038603738791442113
-0.003971701658013949
0.0008448155145691417
0.005374583803626994
-0.001326201152144714
-0.004037294982882276
-0.0034438685540450634
0.00037760149876984273
-0.004627119843994939
-0.003543338449941762
0.0015253806767105834
-0.004718214294390207
-0.004017567220335394
-0.0031261686506887944
-0.0005464354362647232
-0.0020847709821859893
-0.004214690072401068
0.0052914408745177695
0.0019323698450654067
-0.005347233795030881
-0.0011765728945691964
-0.0019097734706818611
-0.0038071456703894714
0.00041311168752588954
0.0010286394932232418
-0.001873034655506412
0.005409245090961742
-0.0027320438617083145
-0.0047902108417412605
-0.0023742041229366942
-0.003659740774036275
0.005242680789919184
-0.004421275340187949
-0.005836989325481606
0.005092005064620816
-0.006149082740716654
-0.004628059532359329
0.0004573927182133718
-0.003524199171843337
-0.0020658791877109584
0.0010795473992722263
0.005233836245133833
0.003407113313051009
-0.006207285277614042
-0.004834384371832599
-0.00593847834383764
-0.003341154587447122
-0.005324704641679973
-0.0008651112704293748
0.0005365840716446304
0.0038541022420037216
-0.002416842872557446
-0.0047620048136980805
-0.004462581019876231
0.0003289440366724027
0.005255235055850414
0.0012501975889159904
0.0006010506430966864
0.0045457785547542125
-0.002910521919330174
-0.0007373858790105463
-0.003584135817311809
-0.0013012516409621703
0.0007047365324436393
-0.0006521683421391119
0.0053019805742853116
0.005559129796555981
0.005394948307169307
-0.0005852424115633824
0.0007777212821848616
-0.003298271750061639
0.005491985578136268
-0.0010039404664431001
0.005725589729787951
-0.0031187161904667493
0.0008653740468727321
-0.00048756552140194454
0.005603926647457535
-0.0039968021751011565
0.0011986529288688806
-0.0008004544200101682
0.005595909505308226
-0.0030619745952896716
0.004884927208864553
-0.00044608044907088097
0.0013673486587131992
-0.004128814183343622
0.004327527187225137
-0.0007592706861102971
0.0015548372468315154
0.0008237433074276676
0.0038352885620193703
-0.0003723112290033364
0.0017476428000813172
-0.002398563023253549
0.003395360602844291
-0.0003262722579798409
0.0019846149529560166
0.0055699925142506075
0.0029759503730466446
-0.0005596355416499052
0.0022169836306399123
-0.0037272034509634
0.0025852302636213136
-0.0002992036119176926
0.0024805455458936734
-0.0033957166233816016
0.002235425794374167
-0.0002922830699749146
0.0027460397121544067
-0.0020375920723586264
0.0019543720267062915
-0.00045286348005993524
0.0030040186441903784
-0.002861592742560434
0.0017856401795511912
-0.00030071880645738476
0.0017517421979676095
-0.0020764489325318346
0.0033477527763481523
-0.0003582220879553675
0.001958564876483541
-0.003694872507573323
0.0035344049101608058
0.0006307842286538636
0.0023006410539427417
-0.003886323164848529
0.004180769218686536
0.0001491713131456168
0.002777022665124121
0.0008344728719968185
0.0034038697396029266
-0.0003385623251120339
0.004675929255571634
-0.002980127509793055
0.0052616365050233965
-0.0006560766033563007
0.004230043817945792
-0.0029842931601673952
0.0056747099250355855
0.0009477288164512674
0.005920066639977855
0.00116958538724487
0.005935127301482527
0.001303716791130882
0.0056511292350959865
-0.004018580269722719
0.005052246938292578