# vtk DataFile Version 1.0
GRUMMP topologically 2D mesh
ASCII

DATASET UNSTRUCTURED_GRID
POINTS 4142 float
  0.9902132100051211  -0.0013897599745845   0.0000000000000000
  0.9878682672001325  -0.0017209544766007   0.0000000000000000
  0.9922830260938109  -0.0010965337451688   0.0000000000000000
  0.9852627687065505  -0.0020876945602550   0.0000000000000000
  0.9824126515147726  -0.0024873693035198   0.0000000000000000
  0.9941016532545700  -0.0008382294190312   0.0000000000000000
  0.9793229395886266  -0.0029189889321549   0.0000000000000000
  0.9759912936709813  -0.0033826574903297   0.0000000000000000
  0.9957253756688895  -0.0006072067599891   0.0000000000000000
  0.9724158418644283  -0.0038783672872607   0.0000000000000000
  0.9972114818934485  -0.0003956828894990   0.0000000000000000
  0.9685983419668763  -0.0044053177853816   0.0000000000000000
  0.9986172604849257  -0.0001958749290171   0.0000000000000000
  0.9645418982154840  -0.0049624143705746   0.0000000000000000
  0.9602493276520160  -0.0055486932126648   0.0000000000000000
  1.0000000000000000   0.0000000000000000   0.0000000000000000
  0.9557225436143375  -0.0061636003738353   0.0000000000000000
  0.9986172604763917   0.0001958749302285   0.0000000000000000
  0.0136778115501445  -0.0198442283865115   0.0000000000000000
  0.9509632892996972  -0.0068066585239019   0.0000000000000000
  0.0111799405480040  -0.0180409152078963   0.0000000000000000
  0.9972114818757430   0.0003956828920181   0.0000000000000000
  0.0164236219435115  -0.0216216850259729   0.0000000000000000
  0.9459737546847580  -0.0074771440326796   0.0000000000000000
  0.0194159763686392  -0.0233724637256901   0.0000000000000000
  0.0089312659290954  -0.0162123970812813   0.0000000000000000
  0.9957253756403164   0.0006072067640564   0.0000000000000000
  0.9353156997544615  -0.0088958032333210   0.0000000000000000
  0.0226532123065557  -0.0250954152174871   0.0000000000000000
  0.0261336316774566  -0.0267893559859237   0.0000000000000000
  0.0068429846519911  -0.0142695304151425   0.0000000000000000
  0.9237713702124288  -0.0104115615140689   0.0000000000000000
  0.0298554003449755  -0.0284531869488138   0.0000000000000000
  0.9941016532123735   0.0008382294250309   0.0000000000000000
  0.0050308200222286  -0.0123013782195995   0.0000000000000000
  0.0012596550434314  -0.0062543845982477   0.0000000000000000
  0.9113626015789812  -0.0120184565864932   0.0000000000000000
  0.0338165365583016  -0.0300859006297539   0.0000000000000000
  0.0005600587198625  -0.0041872521188657   0.0000000000000000
  0.0034956879705714  -0.0103096477045821   0.0000000000000000
  0.0380150486067802  -0.0316864834866382   0.0000000000000000
  0.0001400674572995  -0.0020989425108620   0.0000000000000000
  0.0424489169588349  -0.0332538061244847   0.0000000000000000
  0.8981160449036193  -0.0137076729882106   0.0000000000000000
  0.9922830260341767   0.0010965337536290   0.0000000000000000
  0.0022384105171692  -0.0082946477552229   0.0000000000000000
  0.0000000000000000  -0.0000000005380880   0.0000000000000000
  0.0471161050109934  -0.0347866680569130   0.0000000000000000
  0.8692172420003259  -0.0173025512123363   0.0000000000000000
  0.8840586048664243  -0.0154712341935952   0.0000000000000000
  0.8536242589802903  -0.0191927756559575   0.0000000000000000
  0.0520144653095357  -0.0362838744017245   0.0000000000000000
  0.9902132099234322   0.0013897599861408   0.0000000000000000
  0.0001400673054027   0.0020989413744649   0.0000000000000000
  0.0005600583994229   0.0041872509286527   0.0000000000000000
  0.0089312642537700   0.0162123956290166   0.0000000000000000
  0.0068429832427153   0.0142695290019493   0.0000000000000000
  0.0022384098100130   0.0082946464730838   0.0000000000000000
  0.0034956870455263   0.0103096463775504   0.0000000000000000
  0.0050308188630767   0.0123013768482443   0.0000000000000000
  0.0111799386902237   0.0180409137864515   0.0000000000000000
  0.8373107726191357  -0.0211334926288444   0.0000000000000000
  0.0624935355792051  -0.0391666954139108   0.0000000000000000
  0.9878682670932252   0.0017209544916756   0.0000000000000000
  0.0136778095139640   0.0198442269960848   0.0000000000000000
  0.8203090273240524  -0.0231167391866414   0.0000000000000000
  0.0738633143603066  -0.0418930499584099   0.0000000000000000
  0.8026551811301268  -0.0251343400368426   0.0000000000000000
  0.9852627685719384   0.0020876945791685   0.0000000000000000
  0.0861021386417074  -0.0444536409739349   0.0000000000000000
  0.7843840873894279  -0.0271778197795966   0.0000000000000000
  0.9824126513500548   0.0024873693265746   0.0000000000000000
  0.0991843265815398  -0.0468392532814141   0.0000000000000000
  0.0164236197329729   0.0216216836667636   0.0000000000000000
  0.7461418339277840  -0.0313078737465108   0.0000000000000000
  0.9793229393907722   0.0029189889597428   0.0000000000000000
  0.1130825286139299  -0.0490420520078216   0.0000000000000000
  0.7058944105034720  -0.0354399888107516   0.0000000000000000
  0.1277704618123611  -0.0510562827506626   0.0000000000000000
  0.1762568929815641  -0.0559042078350805   0.0000000000000000
  0.0194159739879911   0.0233724623981675   0.0000000000000000
  0.6639684116827792  -0.0395008026994765   0.0000000000000000
  0.1937838883744062  -0.0571083155282771   0.0000000000000000
  0.9759912934368556   0.0033826575228533   0.0000000000000000
  0.2119350336566717  -0.0581032139582273   0.0000000000000000
  0.1432165586985055  -0.0528747491799113   0.0000000000000000
  0.1593891568184451  -0.0544918670991958   0.0000000000000000
  0.0226532097601106   0.0250954139222151   0.0000000000000000
  0.6207078411914361  -0.0434191082996254   0.0000000000000000
  0.5764634620046084  -0.0471137377839725   0.0000000000000000
  0.9724158415910057   0.0038783673250912   0.0000000000000000
  0.2306739249637577  -0.0588890260835713   0.0000000000000000
  0.0261336289695199   0.0267893547234291   0.0000000000000000
  0.5315950381341085  -0.0505057454921963   0.0000000000000000
  0.4864703588817339  -0.0535094604401647   0.0000000000000000
  0.4414549182767121  -0.0560390634426787   0.0000000000000000
  0.9685983416513994   0.0044053178288238   0.0000000000000000
  0.2697570606452168  -0.0598365819607799   0.0000000000000000
  0.3969170552729402  -0.0580119076690758   0.0000000000000000
  0.0298553974799863   0.0284531857194991   0.0000000000000000
  0.9645418978552561   0.0049624144199126   0.0000000000000000
  0.3107174127482247  -0.0599745523566999   0.0000000000000000
  0.3532197168655907  -0.0593474025151865   0.0000000000000000
  0.9602493272443249   0.0055486932681955   0.0000000000000000
  0.0338165335406938   0.0300858994339835   0.0000000000000000
  0.0380150454409591   0.0316864823247920   0.0000000000000000
  0.9557225431564565   0.0061636004358678   0.0000000000000000
  0.0424489136491938   0.0332538049970267   0.0000000000000000
  0.0471161015618897   0.0347866669642923   0.0000000000000000
  0.9509632887889385   0.0068066585927330   0.0000000000000000
  0.9459737541185675   0.0074771441085412   0.0000000000000000
  0.0520144617255517   0.0362838733443521   0.0000000000000000
  0.9353156990700551   0.0088958033238094   0.0000000000000000
  0.0624935317401540   0.0391666944281135   0.0000000000000000
  0.0738633102849253   0.0418930490455120   0.0000000000000000
  0.9237713694002159   0.0104115616199952   0.0000000000000000
  0.0861021343485112   0.0444536401350998   0.0000000000000000
  0.9113626006299211   0.0120184567085017   0.0000000000000000
  0.0991843220904188   0.0468392525175462   0.0000000000000000
  0.8981160438094651   0.0137076731266115   0.0000000000000000
  0.1130825239435962   0.0490420513187447   0.0000000000000000
  0.8840586036192291   0.0154712343488011   0.0000000000000000
  0.1277704569818227   0.0510562821360933   0.0000000000000000
  0.8692172405930260   0.0173025513845012   0.0000000000000000
  0.1432165537277111   0.0528747486397878   0.0000000000000000
  0.8536242574066383   0.0191927758449732   0.0000000000000000
  0.1593891517258480   0.0544918666322352   0.0000000000000000
  0.8373107708732270   0.0211334928345504   0.0000000000000000
  0.1762568877862003   0.0559042074398506   0.0000000000000000
  0.8203090254010921   0.0231167394087162   0.0000000000000000
  0.1937838830953411   0.0571083152030304   0.0000000000000000
  0.2119350283118140   0.0581032137003017   0.0000000000000000
  0.8026551790260408   0.0251343402747870   0.0000000000000000
  0.2306739195716207   0.0588890258904683   0.0000000000000000
  0.7843840851007032   0.0271778200327233   0.0000000000000000
  0.2697570552113356   0.0598365818878674   0.0000000000000000
  0.7461418312636445   0.0313078740273454   0.0000000000000000
  0.3107174073396524   0.0599745523895525   0.0000000000000000
  0.3532197115457904   0.0593474026374948   0.0000000000000000
  0.7058944074605978   0.0354399891145804   0.0000000000000000
  0.6639684082655058   0.0395008030201497   0.0000000000000000
  0.3969170500997217   0.0580119078642495   0.0000000000000000
  0.6207078374111498   0.0434191086291270   0.0000000000000000
  0.5764634578798972   0.0471137381129498   0.0000000000000000
  0.5315950336908907   0.0505057458089039   0.0000000000000000
  0.4864703541532008   0.0535094607315534   0.0000000000000000
  0.4414549133024901   0.0560390636939180   0.0000000000000000
  0.9901595609719056  -0.0023783411927147   0.0000000000000000
  0.0326649145266362  -0.0334200843455863   0.0000000000000000
  0.9878329678703356  -0.0027145673674890   0.0000000000000000
  0.0733998606732272  -0.0440344159407381   0.0000000000000000
  0.9922372924577029  -0.0020726951087579   0.0000000000000000
  0.8846838814295012  -0.0208009306521702   0.0000000000000000
  0.9852539181750185  -0.0030832573491977   0.0000000000000000
  0.8205556230767344  -0.0253024477924150   0.0000000000000000
  0.9824277530968584  -0.0034836508822686   0.0000000000000000
 -0.0022154120548041  -0.0049277430541563   0.0000000000000000
[...]
POINT_DATA 4142
SCALARS continuity float
LOOKUP_TABLE default
0.0029047443595960148
0.003142629694465057
0.0027291631401919333
0.0033387844995502866
0.003527304112609747
0.002300518943922658
0.003711213655186556
0.003915723121195064
0.001876643750494374
0.004156992435609242
0.0033658911370737774
0.004363666840359101
0.015898735789002354
0.004624907455503154
0.004854007158304737
0.002267524784728462
0.005105360819798283
-0.0012674440978630596
-0.0035114483052091664
0.005401530917896602
-0.004020342301426997
-0.0034808751271477715
-0.0030731189741594893
0.005603436200427172
-0.0026645405960767196
-0.003551757966719088
-0.001734761943774798
0.006007697483687016
-0.0023159447443411303
-0.002045133622853834
-0.003777989884460948
0.006162156349856865
-0.0018754052520609465
-0.002037103031332397
-0.0030597806750305785
0.0004222296038025497
0.00638810119804338
-0.0017621201075778679
0.001257345992352995
-0.0020598285452332627
-0.0016275584909903186
0.002167967292215172
-0.0014680127593719983
0.006555341346935064
-0.0025616874837353963
-0.0008054258021291941
0.0009779083127557224
-0.0012708768591990988
0.00685969859764136
0.006678864777956229
0.006963133884914808
-0.0007623879004647597
-0.002697965859853592
-0.005835614202772985
0.019597283947731824
0.004254470319433896
0.004631544821930733
-0.015565605739480366
0.013899078750184106
0.006512518656010462
0.0048358236248015555
0.007080776921235211
-0.00126254616888284
-0.002931918622690629
0.004417325498134779
0.007094542132068505
-0.0023539121821158702
0.0072250396803879196
-0.0031223816381012364
-0.003395733501776755
0.006840594185133109
-0.0033374617452954615
-0.004099137632289291
0.004115604685035444
0.006636932050907966
-0.0035326999359398046
-0.004605663560779959
0.0062461057004919215
-0.005104968776464429
-0.006581969948093975
0.0037988690681790243
0.005377591874347824
-0.006905845742142862
-0.0037436350643305512
-0.007145586786788283
-0.005618411649541026
-0.0061336761853492145
0.003483449005679714
0.0037394664950612063
0.0013726647367697535
-0.003957200180905287
-0.006701205656325186
0.0032287260034460316
-0.001637150805403369
-0.005112658143449036
-0.0085572328147517
-0.004214316576557828
-0.008186207806709922
-0.011116261109658613
0.0030378985676031748
-0.004444331539604183
-0.010271811515747787
-0.01179897683293139
-0.0047226665423937735
0.0029058150398704047
0.0027233191907946193
-0.004937664947302393
0.002526847815921408
0.0020986654617149636
-0.00517379286163276
-0.005476950221753249
0.002018135796669683
-0.005811301443808977
0.001961802198478766
0.003252294655565728
-0.006025776928485117
0.004208639027561638
-0.006236512934409577
0.004836760289825063
-0.006390409882407331
0.005284692069745213
-0.006594825936283933
0.005741640664106686
-0.0067022461923521535
0.006228567376125943
-0.006840166878417242
0.006725828749504915
-0.006905524337046127
0.007171870450240943
-0.006950129096453344
0.007489872435733556
0.007602307699655143
-0.007129602050907583
0.007364918216071353
-0.0066551882341073934
0.008700651230294688
-0.006699518078643841
0.011063980334595918
0.012580454384191092
-0.006028976429182038
-0.005291548490722241
0.011802437388077808
-0.003615544930072099
-0.0011963616167587113
0.001894446827506736
0.005488406387626403
0.009091158776473898
0.0027903609956867158
-0.0007727980647392714
0.0030476963069805884
-0.0020780373624030867
0.002663038631782856
0.006599183895488932
0.00324190583399869
0.007015200543974852
0.003436908629113168
-0.0005979277819729955
0.00211150566478795
0.0023010406381830557
0.0036252291328839332
0.00045880182560873773
0.003836588624579528
-0.0029732226250034546
0.0018600415191728117
-0.0025260800883165277
0.004081274132777419
-0.0007083378675378416
0.0022428567312731892
0.006785181419668562
0.004290955751634899
0.007003098908314926
-0.002313833471212622
-0.000493378094452917
0.004557318799603118
0.003140500108002596
0.0047900187474283
-0.003206023624670241
0.002465632595536653
0.0012929823025136288
0.0015593849241852796
0.0018007561979750551
0.0013710770039619489
0.0011723185934879698
0.0008666396265631725
0.0050428841586748945
0.007462363846631059
0.0002356649385312068
0.00041792911370606414
0.0012412606555835778
0.012079612619758396
0.005332491150028078
-0.0006555609426807668
0.0013046669949608029
-0.0003761274975316347
-0.0008582353679527028
-0.00024635589568562904
0.000983571798180114
0.004809292797107129
0.005556303935223745
-0.0005461414845368132
0.0006432685389949263
0.0038281324472206873
0.001704484766503497
0.006460162604660751
-0.002107458200658448
0.00768173929193748
0.005939602432388396
0.0004489250663383217
0.0002857041795056964
-0.0007816224509003653
-8.180348447225224e-05
-0.0028329085600490864
0.0014496618437590842
-0.0027551574846749528
0.006096198660001296
-0.0006790243212910186
-0.00044327236234702433
-0.0003676350881488841
-0.0017453538595014772
-0.002018509861269743
0.0012532410611213215
0.0068853159026502995
0.0006224281625425179
-0.0013547177476857758
0.006320820375256391
0.006600259029041521
-0.0007937133761388641
0.00045699055481575193
0.0007482795893413159
0.00678218069913066
0.0009012988003717636
-0.00048322539991466003
-0.0010138511875330302
-0.0002119936939240873
0.0010687769797105696
0.0002692616853071446
-0.001121069884575764
0.000364391549914592
0.006487454744013622
-0.002970379721515367
-0.0025031610950159476
-0.003157726813457498
0.0006538902422257366
0.006770574008367196
0.001009648582655297
-0.0026401155873464212
-0.0009677937973620539
0.00046481164284264845
0.006791867855875144
0.006475155502829412
0.006610128675856134
0.006587749558758893
0.006894647329597978
-0.00040566649864850736
-0.0011430687298046665
0.006470534655252253
-0.002572970254102345
0.0001076843727289737
-0.0020110211104284775
0.006875388337355608
0.008095123041361275
-0.0003612439147493522
-0.0013289373788913643
-0.0006628192859206505
-0.0007342500072530176
-0.003540965403824236
-0.0061416599456656385
0.00021621991903334622
0.009121553120157484
-0.0013533980002842815
0.002549120670365863
-0.001477273001847541
-0.001093377323356327
-0.00027557969640937464
0.00701214361525972
-0.002883360580694885
-0.0015084717661069706
0.006304517087682919
-0.0028397313809658737
-0.0018765175850573674
-0.000983738290066927
-0.002383956377312825
0.007022744734708296
-0.0005315186357021586
-0.0027992494534452537
-0.003528338656034681
0.0071204728261265145
0.000394188732383907
-0.0030299927932772278
-0.002271246531140725
-0.003928554030961237
0.005408278991660348
0.006807053820340601
-0.00014307543211776921
-0.0032520598663667265
-0.0034801213193194386
-0.00467146945869784
0.00607589272668286
-0.0005902396714297231
0.004435511506278546
0.006546271078176855
-0.003270028885926101
-0.003452390093471494
-0.001909096475817506
-0.005181211621013566
-9.733557623346827e-05
0.006164994235587836
0.004649397152163965
-0.005664423450164681
-0.00018942642268841958
-0.007045761331859591
0.006864423586446628
-0.00015610219734762964
0.005918134019532891
0.005290915021344589
-0.00045970202794276365
-0.007325162712785407
-0.0018351596356959371
-0.0036687744184268614
-0.0016464714733521462
-0.007476967227040083
-0.002605075849044062
-0.0061511361554061166
0.008148030284407028
-0.0066321224011253
-0.0004440356229295511
0.00025973243886037646
0.00045681425073626047
0.0036445484659230333
0.005529093713560415
0.0012651955775490225
0.005975061656173548
-0.0038875002384652544
-0.0008597717352550614
-0.007146883525521408
-0.00042188367695828154
0.0006624608252726531
-0.0025605236635178256
-0.0017571333167067927
0.004338816935145254
-0.005249290164725363
-0.0022034737232744166
-0.0087153636552008
0.006676301186346488
-0.004149335191553881
0.005311490162052325
-0.00846987594215751
0.006993251978645374
-0.011298453283871399
-0.0014411703376532754
0.0010516697117990705
-0.0022887279116963885
-0.004381622522159806
0.0004176104694928454
-0.010516940998954123
0.00015422087104328
-0.012010946212317183
0.005023360910057393
-0.004662409364592198
0.006769942383536857
0.0014107050667246646
0.004777802210581751
0.001629513277522225
-0.0030722289776332935
-0.0048794529445686605
0.004557415944373418
0.00175045268333932
0.006294010867221825
0.0014854305719012792
-0.0028234311385005846
-0.005107801337662127
0.0040403392243624
-0.005433221000193606
0.004301107012926552
0.001906291071637253
0.006969350976000128
-0.005744973939308867
0.0028471390282593643
0.0019289651566607971
0.0070061774211551105
0.0034392121458737984
0.0041063739511495116
-0.005962680175278439
-0.0009476647015657159
0.004525119242954348
0.0017576969310526564
-0.006173970363349063
-0.0012434757767641115
0.0052261908726585135
0.003875029480605175
-0.006326635581049239
0.010646016804967653
0.005706077597803704
0.003681272695996749
-0.006529987464585505
0.007117197122046823
0.006170831798328015
0.002454523520359467
-0.006637453507876902
-0.0018269979131544877
0.006649098404615885
0.003511428562816357
-0.00677518706084708
-0.003215722464455705
0.007130504950027997
0.0033401235833322193
-0.006839163197289649
-0.0019404944632442115
0.007553557999396629
0.0027870583013488563
-0.006881885819278971
-0.0024493936120070646
0.007840172262283283
0.00316899396993487
0.007880395109697604
-0.00277714137208976
-0.007029738279620433
0.002952226256243659
0.007748874139107128
0.006792576041184949
-0.0066247910195296154
-0.0008265243474554988
0.008946846349544062
-0.0015088090497623594
-0.006613825038026736
0.0006029338510543973
0.011279467011226074
-0.0034025104125404676
0.012770400114420884
0.0010198014205043426
-0.005952523134912465
-0.0024885192967572687
-0.005209216521171969
0.0013501688643387706
0.011968820964908177
-0.003324403136150541
-0.003526269658687363
0.0015728137871261667
-0.0010969676564025381
-0.0032521708505727294
0.00200619604962535
-0.0019387446151523928
0.005614881468932553
0.0037386846071525656
0.009235429583786108
0.000373095371163538
0.007125799707206216
0.006545220279430915
-0.003135886092020348
0.006287856444036978
-0.003293020436567981
0.00688936957020336
0.0067999610455960965
-0.001367955833547277
-0.0033334119344926656
-0.0008158245123875488
-0.004129574530998606
-0.0028849858850014372
0.0017395054371057953
-0.0004509213694881396
0.006552217188484586
-0.0025141498198888394
-0.003511690020439072
-0.00234425502635532
-0.004716156469766845
-0.001044450034118106
0.006162920037273436
-0.0030483750745500414
-0.005255071186371396
0.006055747553918924
-0.006752939248480725
-0.0015418203239663032
0.0013422626237685727
-0.003147227848362407
0.00528705793052637
-0.00018407865504389026
-0.007080289095097969
-0.001390995718391721
-0.0037100175070201996
0.00044913646215849213
-0.007290467795482777
-0.0018117750899109511
-0.00578454653059172
0.004384912845821389
-0.006303064966072984
0.005897210629411121
0.0010789570254207128
-0.0038571919123841533
0.0036419731002714736
-0.002699676608270856
0.0012668495833689714
0.00314327322791202
-0.003912860708194444
-0.00315697965212267
-0.006959959416849707
-0.0023991968141644435
0.0009715671408854526
-0.0022339200091695843
-0.001749752860553115
0.006816427600670518
-0.005232397639414664
0.005510046006062324
-0.008679443169066143
0.003232382742103736
-0.00416224064692977
-0.002634885944968833
-0.008303414627333403
0.007092279462333709
-0.011231450436100299
-0.0022043386419534905
0.0009924616694465213
0.00011061941486231164
-0.004381976714293238
-0.003246231416619347
-0.010359878501812598
-0.0008192984196897494
-0.011899162984342711
0.0052958516426192415
-0.0046530154591999905
0.0051604326189088065
0.0010970882590308375
-0.0029728090030301073
0.0011489675726283413
0.0004034114239835964
-0.004863182432910984
-0.002649452258479006
0.0011864181376478506
0.004086464961048589
0.0008348098149381959
0.005010381007607909
-0.005091338822578632
-0.00011210035957242709
-0.005411483569851768
0.004771797666886981
0.0012089020008338106
0.0032198188932838425
-0.005726812637114694
0.004560828451932721
0.0011883430175723083
0.006900438013231752
0.0027678536278728655
0.002051506588951904
-0.005945423201904456
0.007009474832468637
0.003922709823781088
0.004311789911268087
-0.006161573945735627
-0.002341169759515231
0.0047026127961945505
0.002719018851873669
-0.006318014562680613
4.051935642687365e-05
0.005247813346562619
0.004129855697930583
-0.006523027277157032
0.007297593535168284
0.005760407798341112
0.0027218618827288114
-0.006630961383474862
-0.003206116123212503
0.006278002121744993
0.003907328746334878
-0.006770059036309123
0.006367004697139563
0.006792097088000357
0.00372523899404416
-0.006834509498518759
0.0033330743697981176
0.007250117139603711
0.002737427717272252
-0.006878659500714667
0.0071990511354023505
0.007583220119235771
0.0035692879169372227
0.00767520374646385
0.007025486588156342
-0.007038481003130059
0.003412648752235349
0.00754601642613002
-0.0004443276957389224
-0.00662157967083027
0.002995319070467848
0.008766062779471846
-0.0010544007090327115
-0.006621800230480539
0.003263797843422584
0.011113458108353852
0.00042203334359508873
0.012649916383067079
0.003084295619205416
-0.005953836466320177
0.007135719087748597
-0.005210497930368518
-0.0001586835462991549
0.01189523162992087
-0.0008515594070551324
-0.0035282493010850573
0.0007940537483704134
-0.0011028176459865098
-0.003337601141425695
0.001993838661727334
0.0017413938064105127
0.0055918981717632535
-0.002120837690427274
0.009193695742305915
0.002086708025156869
0.00605922054465368
0.006552771173895187
-0.0003548163293285785
-0.0035661671276720546
-0.0020008929113259602
-0.0039672047373215955
4.032057413199845e-05
0.00616053960672755
-0.0025948007396791
-0.00455894937790095
0.0003870088739190077
-0.006195443519658916
-0.0026412840560473432
0.0033620314929768964
0.0034330086243043066
0.00528517086579402
0.005903047931048378
-0.006584522679874008
-0.004538188619124613
-0.003753209370616467
-0.002525977428008567
-0.006841948811135514
0.0016924661693545472
-0.005133542074734987
-0.0020973726428346164
-0.0056953646640526875
-0.001242242346206727
0.002924598427794264
-0.002602641948301222
0.003642582314069638
0.0019155646463165368
0.0012738982371997198
-0.002513368953828075
-0.003943224221646211
0.007626108057341709
-0.006544907266068642
-0.002474269382774513
0.0024953170476784176
0.00033632002548078115
-0.0017302608249589039
-0.00230129968282401
-0.005187674579597093
-0.000518468344056476
-0.008591561184936895
0.005309326959380979
-0.004182779857785191
0.0030894246599166794
-0.00789435617608557
-0.002412458521902042
-0.011075905800576616
-0.0006087036019376297
0.002115125492416804
-0.0011636279558347533
-0.004390690375297519
0.002559593229099039
-0.010012114682034329
0.005028883323203176
-0.011648638289064164
-7.578280049789075e-05
-0.004657164855832706
0.004800213729003428
0.0017975368362171968
0.001589904275231508
0.0014664278433250005
0.004604394552109012
-0.004859146419758704
0.007428022113268836
0.0011860202277719938
0.0006536263557609438
0.0005006777960359022
0.00709054447810134
-0.005083802751796642
0.004363163197522578
-0.005402513660863969
-0.003093299296566565
0.0007313585366254139
-0.0009216721196145123
-0.005714774400255943
0.002682088090559683
0.0004362982313558146
-0.0014473807982626817
0.0020062477415470196
0.004199748905511126
-0.005935254961298416
0.008372800572103732
0.003129204141341754
0.0026203306309801446
-0.006153340628830849
-0.0033884399462907468
0.003926126650320538
0.003985388008343917
-0.006311940216499413
0.006591613351500625
0.004509148053448025
0.0038119925400698826
-0.006519556176381635
0.0016088845324446037
0.005062651642461317
0.0029405099200187803
-0.006628397489489953
0.007738351124402196
0.005616154791143218
0.0036675397954529453
-0.006767430366855336
0.007109636457439202
0.006165541462583504
0.003523968540205356
-0.0068336496375074685
-0.0003374923410928266
0.006668084623501712
0.0031353621670847376
-0.006879211324388455
-0.0022704779575193415
0.007059466329369513
0.0033866170160775887
0.0071913163950316815
0.010415183344990744
-0.007039760066104858
0.0032375603330552613
0.007098566470058688
0.007223090304442423
-0.006624190586591582
-3.9955216220010476e-05
0.008326097000306724
-0.0004393694568730516
-0.006630422060964536
0.0006458413335884046
0.010742679482374885
-0.0035063193792331864
0.012380632251004858
0.0012073930654586337
-0.005960815520808628
-0.0009284822413160087
-0.005216162245491134
0.0016165321476654065
0.01172289477379236
-0.0026913523447639805
-0.003537630658228563
-0.0007587745157776519
-0.0011207973484208985
-0.0034002280247257665
0.001961769970784604
-0.005426559689719922
0.00553490305576971
0.006915382690945166
0.009091318427116574
0.00551668367324402
-0.000233246164775013
-0.003516325054337362
-0.00207275736210216
-0.002601909390705646
-0.0035230692215678584
0.003517188706809393
0.006129852235647838
0.006584818677868662
0.00041176765919184207
-0.0036665009976027028
-0.0008339481380039697
-0.0031293915531425947
0.0002533518487898732
0.006195136313552263
-0.0017287824087881942
-0.00366296193473366
0.0002727343964669153
-0.005294581120176495
-0.0014009322010805204
0.0036619187077619885
0.0026875013689816023
0.005320653744587466
0.005977074463414148
-0.005730048982430502
8.779831136627951e-05
-0.003844062213517425
-0.0030263900147971543
-0.006008480676819158
0.0009913171357789751
-0.004214454265588333
-0.0007987485375685419
-0.004773634591726046
-2.155019421454105e-06
0.0037264195173898544
-0.0011320458664556886
0.003686821136576871
0.0013327452888395755
0.001334183011040527
-0.0009047604076142393
-0.004021631189839728
0.008719260954561664
-0.005753981638633576
-0.0027712988161768615
0.00372865491108752
0.0006691163930229223
-0.0016402687920993309
-0.0007741273606904988
-0.005044260226844326
-0.0005511301632936093
-0.008360395230061476
0.005402981722517214
-0.004252173645578042
0.0020935490771852154
-0.007089884695343754
-0.0008167989456305856
-0.01071322507643856
0.0002977663749041473
0.003624634901987747
-0.0025009183335738426
-0.004444440488417939
0.0018257252284037903
-0.009312734332257783
0.0051301653439677535
-0.011116148855395035
-0.000162922742570548
-0.004703782641440261
0.004913275251408013
0.003420115040765582
0.0007146307614048422
0.0030219666662771125
0.004736619058261781
-0.004891678322088945
0.008507540765969988
0.0025748580818145722
0.002709402082400853
0.0016117924430211162
0.0073259842941745925
-0.005107206828414645
0.004499694465053256
0.0015495669190933618
0.00024672765687607065
-0.0057320328282874115
0.003086815882044826
0.000744967843086683
-0.0023662337849881965
0.0019588929619172592
0.0043591101980777125
-0.005953262323359029
0.00033750673683599077
0.002733424639246001
0.0032230895530353846
-0.006174397102395303
-0.0036332253376965126
0.0032926632345057234
0.004143811411106951
-0.006335559214975017
0.007117665076541679
0.003734222591057943
0.003970409919186919
-0.006545539419251854
0.000536426533559516
0.004206919245207564
0.003279530861540323
-0.0066563361862013995
0.008841025079798283
0.004717361879283749
0.00382795277281448
-0.006797492788424346
0.007350222947918958
0.005248544605794572
0.0036877178678854992
-0.006863537814921415
-0.0004128421606166431
0.005758741462067008
0.003379698891227303
-0.0069115428665524545
-0.003623592343472393
0.006184088462264825
0.003550306600806477
0.0063247172435006785
-0.0007701164049564296
-0.007073751770490382
0.0034411822592153155
0.006271617124202162
0.007468330544429084
-0.006662583122655684
-0.0006492698011487748
0.007485281756863093
-0.0004149101021124369
-0.006676782418827037
0.0005259868802597881
0.01001208903368552
-0.003757937817250058
0.011822902298529416
0.0016271485392600953
-0.006009398017262416
9.057665102189893e-05
-0.005267902243814917
0.002270467007324413
0.011337632190719133
-0.004260531856704037
-0.003597354056529813
-0.0015531127140197038
-0.001197727414520518
-0.0038319510777788304
0.001854393370370827
-0.005532182310546605
0.005371831170212341
0.00718128978489079
0.008839219523177145
0.005596161393858828
0.00042485891479150586
-0.0036882879585960976
-0.0005039250659179915
-0.0028742210408808804
-0.003922246249074442
0.0017560653508695476
0.006351158748515292
0.006698886674051492
-0.0007420618528097215