# vtk DataFile Version 1.0
GRUMMP topologically 2D mesh
ASCII

DATASET UNSTRUCTURED_GRID
POINTS 4142 float
  0.9902132100051211  -0.0013897599745845   0.0000000000000000
  0.9878682672001325  -0.0017209544766007   0.0000000000000000
  0.9922830260938109  -0.0010965337451688   0.0000000000000000
  0.9852627687065505  -0.0020876945602550   0.0000000000000000
  0.9824126515147726  -0.0024873693035198   0.0000000000000000
  0.9941016532545700  -0.0008382294190312   0.0000000000000000
  0.9793229395886266  -0.0029189889321549   0.0000000000000000
  0.9759912936709813  -0.0033826574903297   0.0000000000000000
  0.9957253756688895  -0.0006072067599891   0.0000000000000000
  0.9724158418644283  -0.0038783672872607   0.0000000000000000
  0.9972114818934485  -0.0003956828894990   0.0000000000000000
  0.9685983419668763  -0.0044053177853816   0.0000000000000000
  0.9986172604849257  -0.0001958749290171   0.0000000000000000
  0.9645418982154840  -0.0049624143705746   0.0000000000000000
  0.9602493276520160  -0.0055486932126648   0.0000000000000000
  1.0000000000000000   0.0000000000000000   0.0000000000000000
  0.9557225436143375  -0.0061636003738353   0.0000000000000000
  0.9986172604763917   0.0001958749302285   0.0000000000000000
  0.0136778115501445  -0.0198442283865115   0.0000000000000000
  0.9509632892996972  -0.0068066585239019   0.0000000000000000
  0.0111799405480040  -0.0180409152078963   0.0000000000000000
  0.9972114818757430   0.0003956828920181   0.0000000000000000
  0.0164236219435115  -0.0216216850259729   0.0000000000000000
  0.9459737546847580  -0.0074771440326796   0.0000000000000000
  0.0194159763686392  -0.0233724637256901   0.0000000000000000
  0.0089312659290954  -0.0162123970812813   0.0000000000000000
  0.9957253756403164   0.0006072067640564   0.0000000000000000
  0.9353156997544615  -0.0088958032333210   0.0000000000000000
  0.0226532123065557  -0.0250954152174871   0.0000000000000000
  0.0261336316774566  -0.0267893559859237   0.0000000000000000
  0.0068429846519911  -0.0142695304151425   0.0000000000000000
  0.9237713702124288  -0.0104115615140689   0.0000000000000000
  0.0298554003449755  -0.0284531869488138   0.0000000000000000
  0.9941016532123735   0.0008382294250309   0.0000000000000000
  0.0050308200222286  -0.0123013782195995   0.0000000000000000
  0.0012596550434314  -0.0062543845982477   0.0000000000000000
  0.9113626015789812  -0.0120184565864932   0.0000000000000000
  0.0338165365583016  -0.0300859006297539   0.0000000000000000
  0.0005600587198625  -0.0041872521188657   0.0000000000000000
  0.0034956879705714  -0.0103096477045821   0.0000000000000000
  0.0380150486067802  -0.0316864834866382   0.0000000000000000
  0.0001400674572995  -0.0020989425108620   0.0000000000000000
  0.0424489169588349  -0.0332538061244847   0.0000000000000000
  0.8981160449036193  -0.0137076729882106   0.0000000000000000
  0.9922830260341767   0.0010965337536290   0.0000000000000000
  0.0022384105171692  -0.0082946477552229   0.0000000000000000
  0.0000000000000000  -0.0000000005380880   0.0000000000000000
  0.0471161050109934  -0.0347866680569130   0.0000000000000000
  0.8692172420003259  -0.0173025512123363   0.0000000000000000
  0.8840586048664243  -0.0154712341935952   0.0000000000000000
  0.8536242589802903  -0.0191927756559575   0.0000000000000000
  0.0520144653095357  -0.0362838744017245   0.0000000000000000
  0.9902132099234322   0.0013897599861408   0.0000000000000000
  0.0001400673054027   0.0020989413744649   0.0000000000000000
  0.0005600583994229   0.0041872509286527   0.0000000000000000
  0.0089312642537700   0.0162123956290166   0.0000000000000000
  0.0068429832427153   0.0142695290019493   0.0000000000000000
  0.0022384098100130   0.0082946464730838   0.0000000000000000
  0.0034956870455263   0.0103096463775504   0.0000000000000000
  0.0050308188630767   0.0123013768482443   0.0000000000000000
  0.0111799386902237   0.0180409137864515   0.0000000000000000
  0.8373107726191357  -0.0211334926288444   0.0000000000000000
  0.0624935355792051  -0.0391666954139108   0.0000000000000000
  0.9878682670932252   0.0017209544916756   0.0000000000000000
  0.0136778095139640   0.0198442269960848   0.0000000000000000
  0.8203090273240524  -0.0231167391866414   0.0000000000000000
  0.0738633143603066  -0.0418930499584099   0.0000000000000000
  0.8026551811301268  -0.0251343400368426   0.0000000000000000
  0.9852627685719384   0.0020876945791685   0.0000000000000000
  0.0861021386417074  -0.0444536409739349   0.0000000000000000
  0.7843840873894279  -0.0271778197795966   0.0000000000000000
  0.9824126513500548   0.0024873693265746   0.0000000000000000
  0.0991843265815398  -0.0468392532814141   0.0000000000000000
  0.0164236197329729   0.0216216836667636   0.0000000000000000
  0.7461418339277840  -0.0313078737465108   0.0000000000000000
  0.9793229393907722   0.0029189889597428   0.0000000000000000
  0.1130825286139299  -0.0490420520078216   0.0000000000000000
  0.7058944105034720  -0.0354399888107516   0.0000000000000000
  0.1277704618123611  -0.0510562827506626   0.0000000000000000
  0.1762568929815641  -0.0559042078350805   0.0000000000000000
  0.0194159739879911   0.0233724623981675   0.0000000000000000
  0.6639684116827792  -0.0395008026994765   0.0000000000000000
  0.1937838883744062  -0.0571083155282771   0.0000000000000000
  0.9759912934368556   0.0033826575228533   0.0000000000000000
  0.2119350336566717  -0.0581032139582273   0.0000000000000000
  0.1432165586985055  -0.0528747491799113   0.0000000000000000
  0.1593891568184451  -0.0544918670991958   0.0000000000000000
  0.0226532097601106   0.0250954139222151   0.0000000000000000
  0.6207078411914361  -0.0434191082996254   0.0000000000000000
  0.5764634620046084  -0.0471137377839725   0.0000000000000000
  0.9724158415910057   0.0038783673250912   0.0000000000000000
  0.2306739249637577  -0.0588890260835713   0.0000000000000000
  0.0261336289695199   0.0267893547234291   0.0000000000000000
  0.5315950381341085  -0.0505057454921963   0.0000000000000000
  0.4864703588817339  -0.0535094604401647   0.0000000000000000
  0.4414549182767121  -0.0560390634426787   0.0000000000000000
  0.9685983416513994   0.0044053178288238   0.0000000000000000
  0.2697570606452168  -0.0598365819607799   0.0000000000000000
  0.3969170552729402  -0.0580119076690758   0.0000000000000000
  0.0298553974799863   0.0284531857194991   0.0000000000000000
  0.9645418978552561   0.0049624144199126   0.0000000000000000
  0.3107174127482247  -0.0599745523566999   0.0000000000000000
  0.3532197168655907  -0.0593474025151865   0.0000000000000000
  0.9602493272443249   0.0055486932681955   0.0000000000000000
  0.0338165335406938   0.0300858994339835   0.0000000000000000
  0.0380150454409591   0.0316864823247920   0.0000000000000000
  0.9557225431564565   0.0061636004358678   0.0000000000000000
  0.0424489136491938   0.0332538049970267   0.0000000000000000
  0.0471161015618897   0.0347866669642923   0.0000000000000000
  0.9509632887889385   0.0068066585927330   0.0000000000000000
  0.9459737541185675   0.0074771441085412   0.0000000000000000
  0.0520144617255517   0.0362838733443521   0.0000000000000000
  0.9353156990700551   0.0088958033238094   0.0000000000000000
  0.0624935317401540   0.0391666944281135   0.0000000000000000
  0.0738633102849253   0.0418930490455120   0.0000000000000000
  0.9237713694002159   0.0104115616199952   0.0000000000000000
  0.0861021343485112   0.0444536401350998   0.0000000000000000
  0.9113626006299211   0.0120184567085017   0.0000000000000000
  0.0991843220904188   0.0468392525175462   0.0000000000000000
  0.8981160438094651   0.0137076731266115   0.0000000000000000
  0.1130825239435962   0.0490420513187447   0.0000000000000000
  0.8840586036192291   0.0154712343488011   0.0000000000000000
  0.1277704569818227   0.0510562821360933   0.0000000000000000
  0.8692172405930260   0.0173025513845012   0.0000000000000000
  0.1432165537277111   0.0528747486397878   0.0000000000000000
  0.8536242574066383   0.0191927758449732   0.0000000000000000
  0.1593891517258480   0.0544918666322352   0.0000000000000000
  0.8373107708732270   0.0211334928345504   0.0000000000000000
  0.1762568877862003   0.0559042074398506   0.0000000000000000
  0.8203090254010921   0.0231167394087162   0.0000000000000000
  0.1937838830953411   0.0571083152030304   0.0000000000000000
  0.2119350283118140   0.0581032137003017   0.0000000000000000
  0.8026551790260408   0.0251343402747870   0.0000000000000000
  0.2306739195716207   0.0588890258904683   0.0000000000000000
  0.7843840851007032   0.0271778200327233   0.0000000000000000
  0.2697570552113356   0.0598365818878674   0.0000000000000000
  0.7461418312636445   0.0313078740273454   0.0000000000000000
  0.3107174073396524   0.0599745523895525   0.0000000000000000
  0.3532197115457904   0.0593474026374948   0.0000000000000000
  0.7058944074605978   0.0354399891145804   0.0000000000000000
  0.6639684082655058   0.0395008030201497   0.0000000000000000
  0.3969170500997217   0.0580119078642495   0.0000000000000000
  0.6207078374111498   0.0434191086291270   0.0000000000000000
  0.5764634578798972   0.0471137381129498   0.0000000000000000
  0.5315950336908907   0.0505057458089039   0.0000000000000000
  0.4864703541532008   0.0535094607315534   0.0000000000000000
  0.4414549133024901   0.0560390636939180   0.0000000000000000
  0.9901595609719056  -0.0023783411927147   0.0000000000000000
  0.0326649145266362  -0.0334200843455863   0.0000000000000000
  0.9878329678703356  -0.0027145673674890   0.0000000000000000
  0.0733998606732272  -0.0440344159407381   0.0000000000000000
  0.9922372924577029  -0.0020726951087579   0.0000000000000000
  0.8846838814295012  -0.0208009306521702   0.0000000000000000
  0.9852539181750185  -0.0030832573491977   0.0000000000000000
  0.8205556230767344  -0.0253024477924150   0.0000000000000000
  0.9824277530968584  -0.0034836508822686   0.0000000000000000
 -0.0022154120548041  -0.0049277430541563   0.0000000000000000
[...]
POINT_DATA 4142
SCALARS continuity float
LOOKUP_TABLE default
-0.000671816209828161
-0.0006484890971840397
-0.0006659739214109261
-0.0006307043311144512
-0.0006062934609608638
-0.0007299714967774205
-0.0005814514999442591
-0.0005590993881355008
-0.0005602675296501097
-0.0005382669262453498
-0.0008445029984115314
-0.0005168222839449389
-0.004068351310240998
-0.0005025339651620401
-0.0004843346847581248
-0.0012092839626324434
-0.0004713274574812031
-0.005074648621171245
-0.00031435149334204315
-0.0004682110974223348
-0.0006842989820426122
-0.0007746721335152197
4.317379121759133e-05
-0.00045984125820856646
0.000381502402210925
-0.0010894448428292625
-0.0005621320173237746
-0.0004620142731801107
0.0006982147986486989
0.0009934808479158152
-0.0014986232145810631
-0.0004831277543926211
0.001267397309173644
-0.0007145872066372111
-0.0019174611289351036
-0.003087127437271032
-0.0004959728101319205
0.0015188143023433995
-0.003380867356480295
-0.0023302570101016344
0.0017503468143513336
-0.0035738833895921814
0.0019667642558557907
-0.0005066281498332874
-0.0006370564413802545
-0.0027255838062507295
-0.0036272475187846343
0.00216994631233067
-0.0005466037030016689
-0.0005214652950024946
-0.000542274498416549
0.0023830195552827444
-0.0006350472560803541
-0.0035367675553610255
-0.0031944169611563935
-0.0010429827232780013
-0.0014453212806171789
-0.0028021395485952243
-0.002165898992852821
-0.0018422794835711652
-0.0006499770263791156
-0.0005974977179950718
0.002600251001058792
-0.0006093348262385357
-0.0002871982686154556
-0.0005844460076664761
0.0028383687462155806
-0.0006744326913634274
-0.0005894973203465987
0.0030007266981965904
-0.0007336840774002696
-0.0005689171693318405
0.0030962334064234096
6.342765274066482e-05
-0.0008547378028598427
-0.0005458970916930426
0.0031283070506866414
-0.0009716183118040637
0.0030952735591486757
0.002624456420744384
0.0003935669116874801
-0.0011570001618745023
0.0023576628935556955
-0.0005224063404486389
0.0020339182811898683
0.002997944910203643
0.002839107282747553
0.0007018348197040059
-0.0014032384194331373
-0.0016611772037000065
-0.0005013491530013326
0.0015831764459352192
0.0009869224284061431
-0.001878491501091072
-0.001996110825060872
-0.001942145442489494
-0.0004852994782151373
0.0007878792045744672
-0.0016368967817927285
0.0012503542530123805
-0.0004672694156082708
-0.0001705095636464155
-0.001033005122465097
-0.0004586123885731769
0.0014908218096683283
0.0017109729108610529
-0.0004439634435581644
0.0019158782265844385
0.0021080809911410395
-0.0004337263469620747
-0.0004449362160176178
0.0023063952816399368
-0.00044484181952654034
0.0025052246287403145
0.002720406077314598
-0.00046557205359639065
0.002863059972020994
-0.00047895304834475903
0.00293991147484481
-0.0004841058527511444
0.002954274738242485
-0.0005114561876969516
0.0029050045569107208
-0.0005108325024528055
0.0027930385807132915
-0.0005609959940894428
0.0026211298137682783
-0.0005521371537367986
0.0023951855719843004
-0.0006314752098258922
0.0021197776084437977
0.0017891317205684985
-0.0006071869996414743
0.0013358381428743994
-0.0007833662698067923
0.0005489814064868019
-0.0008689916431372202
-0.000386239267013512
-0.0012173242917718915
-0.000993721140710816
-0.0011846018918998753
-0.0017874313965906287
-0.0014430171364736304
-0.0017158518632444434
-0.0019513603372271736
-0.0020901491873014624
-0.002061726745648919
-0.0006817560361588232
9.78322483514103e-06
-0.000651555983198778
0.002562022608482975
-0.0006617980444412233
-0.0005660335560149325
-0.0006341736022117967
-0.0005926796188486202
-0.0006093066369978698
-0.00329277357724029
-0.0007992482199041173
-0.0014377006490451931
-0.0005846506111827722
-0.0019176630398719389
-0.0005622692539699123
-0.0006039574999331449
-0.00045494280428928205
-0.0030916057343344737
-0.0005413796167451534
0.0022621943145140692
-0.0011091260669601833
-0.0005950009281629266
-0.0005196669791687116
-0.0006051435651545075
-0.0002113824555038458
0.0003551886296782955
-0.000505316033081433
-0.0018627871338488388
-0.00048681605229801417
-0.0006307560554493184
-0.0019517653972523823
-0.002013891337778281
-0.0013226406436318671
-0.0008052853882171356
-0.0005307456553522148
-0.0007930052320907756
-0.0012729513947275538
-0.0004734634398915149
-0.002950448838401182
-2.1500455102437243e-05
-0.0033232402726974327
-0.000543681956258616
-0.003167087316935113
-0.00046991791790394587
4.876156932412845e-05
-0.0009438681590093781
-0.003584143957142419
-0.0010876994628983118
0.0006876614367931985
-0.00015965467697578244
-0.0026484542810682994
-0.0004616809174386119
-0.0015234214822565564
0.00020230034622238066
-0.0022787170422641583
-0.0013771719638162822
-0.000522529850968452
-0.00042596712058496977
-0.003534194522137219
-0.0004634617071554181
-0.0028884699174979945
0.0005401019895680971
-0.0036513655522282854
0.000853948670522663
-0.0006190194457288276
-0.0018144018017124733
-0.000631264373264086
-0.000484443762316401
-0.0023336007450579107
0.0011439796251668053
0.0019864908197208164
-0.0007829341209555436
-0.003179745028423073
-0.0022497637687949185
-0.0005489536903808916
-0.0033765759048440956
-0.0027933738072473784
-0.0004973252726978859
-0.0005268454408635689
0.0014101890466196286
-0.0033441583909982397
-0.003633900132391929
-0.0005526812510328785
-0.002666184751033403
-0.0018990842684421026
0.0016544874537404166
0.0017152564253785807
-0.0038037725611112074
0.0010037979626432627
0.0018830037385211774
-0.0036649915349493433
-0.0005081635147239711
-0.0006209220835073452
-0.0006313621443667028
-0.0032888505704369575
-0.0030466938378545597
-0.0005659306266027855
-0.0038534262368868882
-0.0006159973692421563
0.0021000866249009306
-0.002390998751416599
-0.0005484522109157305
-0.0005113940049078641
-0.000523246164167373
-0.0005390097338067215
-0.0005441397056594274
0.0014600728577523453
0.0023176185569374853
-0.0005480470407964661
-0.0006452822913095132
-0.0036329618595268734
-0.003764004700826937
-0.0005633716076987745
-0.003516540556836295
0.00118605570095337
-0.001359752024318867
-0.0011987184370874297
-0.0018079957074390452
-0.0030840760443714517
-0.003256117176520995
0.0013459867475760533
-0.002617316472750898
-0.003559746046120597
-0.0022437203779144843
-0.00027702611434609
-0.0009266589111038068
0.0008932037914076045
-0.0005995389407142288
-0.000628107659302565
0.002547827556336734
-0.0005003389844281966
-0.0006123122597544715
-0.000700967558796423
-0.0005262355009263541
-0.003446290776877517
-0.0005865944409656028
-0.0033535783611392937
0.0027964870973053004
-0.0028270462524381504
-0.000676447875780922
-0.0028723568480581415
-0.0005929798434943164
-0.0007096753431350336
0.0029676319970177454
-0.003297510255687088
-0.0007363611114047935
0.0005761078460019712
-0.0005720185124726247
-0.0006444039642990276
0.0030701183735561822
-0.00048755715471340404
-0.000143462008115204
-0.0028384684646820947
-0.0008571699387517613
-0.0025140599098493694
-0.0005490307694594627
-0.0005913931226701504
0.0031076544711942946
0.00023155757165999069
-0.0009744218642502116
-0.0030226733376668828
0.0030790365715482214
-0.00013809233079684473
0.0026168506074577148
-0.0006530677746176648
0.00021464762674326722
-0.0004670299280753546
-0.001160062217667662
-0.0034064299577050636
0.0023518253484856575
-0.00045165270409295265
-0.000525447293714758
-0.002741308040683179
0.0020289784755617986
-0.0021578298610669356
0.0029852676482561465
-0.003223564740264784
0.002829265752619749
-0.0005294065637251181
0.0005463135164232161
-0.0015023928470872306
-0.0014065509685053934
-0.0004658764906704752
-0.0016647809705485467
-0.0031510157288771948
-0.0005042966273773685
-0.0009373447780172943
0.0015801010458040856
-0.002855261215639918
0.0008524407620430344
-0.0009308634052117509
-0.001882317486010627
-0.002598620608020167
-0.002000146784870443
-0.001757210111257765
-0.0019461070312740366
-0.000621299495351533
-0.0004880432847708377
-0.00047431329380687805
0.000784454301599216
-0.0006207230965531648
-0.0016407235627794597
-0.001351511117547384
0.001133064106127256
-0.0008895087557751673
-0.0004696442669945448
0.0008342767434836245
-0.0001735359743283817
0.0017007778334402971
-0.0010366138895172904
-0.000477926137887926
-0.00046071046887614177
-0.0007002395125660325
0.0013891985123576204
-0.0004909360426212225
0.00162261038821999
-0.0006017551591894565
-0.0004457910284039746
-0.0005087707747254785
0.001839739120911776
-0.0005346596509539361
0.002045157113159343
0.0010863765487897758
-0.0004351563601228698
-0.0023170901117146895
-0.0004465316836303252
-0.0005222531859438331
0.0022483763356689053
-0.0006547425904252843
-0.00044588657278409136
-0.0009668209880678992
0.0024597384092173496
-0.0006092633416630328
0.0026849575521088135
-0.0005429901219563225
-0.00046659500575540097
-0.0028308569240051897
0.0028357162013846
-0.00044660868228248775
-0.0004800047568554581
0.0020832088541621477
0.0029187742219774276
-0.0005627186710635914
-0.00048536109599869615
-0.0015511870595071875
0.0029380957841677537
-0.0005837218857364234
-0.0005129455842696074
-0.0007005014959086095
0.0028927401563840823
-0.0007376434813567642
-0.000512420473908723
-0.0026715293633330626
0.0027838172532688387
-0.0006068664547329119
-0.0005626623206569305
-0.0005861938331569223
0.002614337368890638
-0.0006304892728274994
-0.0005538827248800587
-0.00042062171853344865
0.0023902978866067884
-0.0006467049129962826
-0.000633473594648367
0.002379616942304152
0.0021163061011186977
-0.0006450762196249398
0.0017862619876043895
-0.0006760402716323601
-0.0006089611794712047
-0.0006712659655310887
0.0013344385165513617
-0.0007629318732985472
-0.000785828248923385
-0.0011417417001396183
0.0005470241601532812
-0.0007867283417220611
-0.0008711304229412501
-0.0009564901981402213
-0.00038821671218284957
-0.0005680229862524845
-0.001219937242147734
-0.0010225209223982687
-0.0009962513898672245
-0.0011704017016059135
-0.0011873360369183752
-0.0009450758141558253
-0.0017905837803872072
0.002590526264737642
-0.001445954618749443
-0.0012868900310599074
-0.0017190319031912661
-0.000625586355592376
-0.001954767599633218
0.001695957210554194
-0.002093631683441842
-0.001989069668342938
-0.0020650929318863057
-0.0012870517695861556
-0.0006827711334470452
-0.0006005681382011596
-0.0005872096324428904
-0.0005106224619407769
0.002777993759994748
-0.0005942911703198981
-0.0007437104855344897
-0.0032452676902688417
-0.0005676540003252756
-0.000703696893170429
0.0029182173457062955
-0.0029735995313968488
-0.0010051669279521071
0.0004333493866488729
-0.0008654401761321687
-0.0007002090911389649
-0.0005458933761740474
-0.0008975030925607793
0.002987032680392704
-0.0003507790004937774
-0.0009841844109156617
-0.000623384945399637
0.0029845411056335478
-0.0004973973426691202
0.0025763144680875007
-0.0007637286698639261
-0.0005807372421556398
-0.002818222697246334
-0.0011709420608073775
-0.002904089617083484
0.0023228019358017423
-0.0007209496331808425
-0.0005237592424326644
-0.0023776391822657636
0.0020083440159498096
-0.0010918402216152407
0.0029125510755737497
-0.002870859447691707
0.0027744341125605955
-0.0004768800439260662
-0.0001780761276413013
-0.0006805186915895492
-0.001418367709551517
-0.0005365171862286441
-0.0016773384846989685
-0.002674700171617082
-0.0005038676925588646
-0.0026266083281486757
0.0015672633447460092
-0.0010654967581390426
0.0001986434247920769
-0.001453358828428125
-0.0018955203922967753
-0.0008018274112563997
-0.0020133098344494275
-0.000476006118429614
-0.0019586054363468913
-0.0027609829445221718
-0.0004887589619806943
-0.001795735704218296
0.0007766670746823435
-0.0007597123915870364
-0.0016516243851729066
-0.0008671270610591473
0.0005464493456884445
-0.0029380523128013833
-0.00047107280386780544
-0.002382836182107196
-0.00018030634575717206
-0.0022942895203769678
-0.0010453016609025237
-0.0004848268266369849
-0.0004628557354679915
-0.0028580040222315663
0.0008646544311984147
-0.0021077658979086027
0.0011539081457748116
-0.0011396198322498182
-0.0004483649350447884
-0.0002647749776477393
0.0014225318989837823
-0.0028244923592470063
0.0016715779052602123
-0.00048816617491663017
-0.0004376236376070311
-0.002369302654713424
-0.0004488817377405
-0.0005009809217749658
0.0019310993056185586
-0.002568033568178261
-0.00044725962135521536
-0.0005185043309630442
0.002192560297829365
-0.0007241951250293582
0.0024710788785914373
-0.0003404752643610046
-0.00046758479272663526
-0.0006536808958524689
0.002667313883468044
-0.0005310662474862277
-0.0004811631145059898
-0.0012073921659403668
0.0027878062164781443
-0.0009091906245831135
-0.0004868204350042855
0.0008366842093137772
0.0028376497440707757
-0.000550939313600586
-0.0005148560447082037
-0.0008733605074566318
0.002817272207631502
-0.0005745563458500764
-0.0005147969852518613
-0.0006019075186229533
0.002728907124990513
-0.0005694255046851459
-0.0005657428739378736
-0.0005851303445256184
0.0025759286833480378
-0.00058915119675228
-0.0005574939111882673
-0.0024431189024027764
0.0023648226001170844
-0.0007377875594370122
-0.0006379875671006371
-0.000764417503104204
0.0021008269571302406
-0.0006108773797754014
0.0017781339299681959
-0.0006437403739399794
-0.0006137595121997306
-0.000633839854371376
0.0013322285708865977
-0.002356734154019515
-0.0007913893247706407
-0.0006565914282879237
0.0005484079443479522
0.0013011724024896535
-0.0008774665208370484
-0.0006472004154060286
-0.00038735720925270345
0.0008168630573475405
-0.0012224271113773777
-0.0006734678541297838
-0.001004004816199523
-0.0007370695760572464
-0.0011961754589768544
-0.0010724601818158169
-0.0017963588080650399
-0.0022321540387346263
-0.001455390657352706
-0.0011060074796567666
-0.0017290572566749124
-0.0005887211066395845
-0.001964935427247193
-0.0010952406390200243
-0.0021032939577743832
-0.0006962171010443723
-0.0020733414524841632
-0.0011850417087125287
-0.0005205083995664375
-0.0008871214042818563
-0.00023713405925407876
-0.0005474517765450829
-0.002581760568451883
0.002720981883298577
-0.0024107654286102316
-0.0010084319816908284
-0.0014290587236066652
0.0027718842388885813
-0.0019067830239890044
0.0024816416284685378
-0.0016631484413258426
-0.0016285894783224736
-0.0024017408713311503
-0.001197316411409437
-0.000499275625983022
0.0022545932483850903
-0.0007330982786898096
-0.0005263885362473751
-0.0005718556321204975
0.0019613950566449863
-0.0021940324103998953
0.0027459331635324162
-0.002477358155471273
0.0026470026916296614
-0.0008156658944915538
-0.0012450290602601657
-0.0018701461646692399
-0.00144633816418471
-0.002279299084895977
-0.0017065688535749023
-0.0020524395774827306
-0.0005075536233669895
-0.0009402237498551137
0.0015395206185107766
-0.000764553769180122
-0.000852137503341963
-0.0024321682564632644
-0.0019249844402553626
-0.0023508392061583443
-0.002041473924829987
-0.0018719238079629153
-0.001983391490951531
-0.0005070814980602074
-0.0004936917784512918
-0.0023883019829623138
0.0007647154971679981
-0.002211281053113567
-0.0016710576592002923
7.817451216386121e-05
-0.0004612263977509261
-0.00020924701051786498
-0.00047643272071474276
-0.002347422510780765
-0.00018866281314308572
-0.0005097905349923602
-0.0010582122422659167
-0.0019078364507545923
-0.0004689446121682675
-0.0005222818732251094
-8.344273221193746e-05
-0.0021011562019982452
0.00027655173937978254
-0.0005392070773416844
-0.0004545469999932216
-0.0009009735821799719
0.0006186699068595541
-0.00017465657603886345
0.0009429678044032247
-0.0007172753950333025
-0.00044372681319007086
-0.0005500964537494895
-0.00045513980869209486
-0.0006655472300545025
0.0012862574806199363
-0.0008520495808684488
-0.00045298181715742607
-0.0008016614453638692
0.0016400510077644837
-0.0001151973208886715
0.0020116813877726365
-0.0005690723265210915
-0.00047341121484608344
-0.0011434715051347874
0.0022950540467218325
-0.0006005370103049147
-0.0004875325524312003
-0.0006104293126138799
0.0024900550392074187
-0.0005857922273703021
-0.0004940220218146823
-0.0006815078890602311
0.0026032440204967087
-0.0006035257353207746
-0.0005231787642626751
-0.0020108798201436758
0.002636709819536038
-0.0007211528094210887
-0.0005241782836326648
-0.0009473938043683104
0.002593893795324292
-0.0006230103435042781
-0.0005763013887409051
-0.000709467857212765
0.0024789567205497744
-0.0006437388152137368
-0.0005692097139617361
-0.0019068923621116554
0.002298921002774173
-0.0006638378029560697
-0.0006508461572922179
0.00031042382946912207
0.002059583652086945
-0.0006545150273567908
0.001756065353896686
-0.0015201984972060803
-0.0006277499658365282
-0.0006766666745794366
0.001326837772532458
-0.0008060270224600664
-0.0008065975892415768
-0.0007738971412610369
0.0005556531144505024
-0.0018195066752484089
-0.0008949349596011433
-0.0008232343128384033
-0.0003794907509418105
-0.0005988239003113196
-0.001221875606425319
-0.000774535932896686
-0.0010238409390494322
-0.0002880811744499191
-0.0012176942466043958
-0.0007890556267132725
-0.001804481102622767
0.0007341331519620525
-0.001478199080347897
-0.0007825155116092541
-0.0017522402636588024
-0.0006648712112504451
-0.0019875264081723734
-0.00047023918824772633
-0.0021234971878501254
-0.0008736134616048869
-0.0020886947006550317
-0.0004980444800713339
-0.00020360973401072578
-0.0005732041227313528
-0.0013290324897879985
0.0020056004580060747
-0.0006385902715289933
-0.0022942719088609033
-0.0005692120496328269
-0.0009296807255433873
0.000396201967403858
-0.0005546997609106744
-0.002148628751330474
0.002229758689778893
-0.0019423401640405013
-0.0010547551770022456
-0.0014366658081651897
0.002367517702957237
-0.0014951719694232734
0.0022890533573405782
-0.0015356187049399667
-0.0021168156420311134
-0.0019579891536693223
-0.0012466350234995932
-0.0005461757180076798
0.0021145309007567195
0.0008375237650364016
-0.0005353852727209748
-0.000621408050366921
0.0018651396267089708
-0.001728209593010563
0.002420718171290589
-0.0020509476994428418
0.002392553808674069
-0.00021767855865421838
-0.0019082403100468416
-0.001632733987441302
-0.0014976514572131304
-0.001829320569954957
-0.0017583450446003693
-0.0017319060956721768
-0.0005181439750347932
-0.0012128242579414396
0.0014861160298242728
-0.000724807464098828
-0.0016667878008045773
-0.0019712626686960127
-0.0019749631090715323
-0.0019428138364546653
-0.0020861805799532148
-0.0015157621029879287
-0.0020185739851741984
-0.0005525370157918547
-0.0005059284421915879
-0.0019463170006912096
0.0007493527412416105
-0.0018359314503569638
-0.0016932790625298177
-0.0008256106728264388
-0.001394035199546147
-0.0005309644378615555
-0.000489333344181415
-0.0019055956084877987
-0.00019038527033556147
-0.0005537220953771022
-0.00106685043397771
-0.0015031476084326788
-0.0004834291608946417
-0.0005654765623286581
-0.0010952661892059273
-0.0016112666265859586
-0.000776601853689181
-0.000581565866210436
-0.0004691619203025945
-0.0011726855913484896
-0.00044062981894267957
-0.0005789448374299801
-9.214827255424081e-05
-0.0008308101639936714
-0.00045826416537888984
-0.0005897699019855603
0.00031340287953061566
-0.0002686604256589727
-0.0004679975827994422
-0.000775414580487822
0.0007382485446059885
-0.000611108076688686
0.0012148220475636596
-0.0006070027212427964
-0.0004891461997284032
0.0006382611162823399
0.0016159391956287953
-0.0006729264846284063
-0.0005044447999040201
-0.0006270435539793093
0.0019241857419043337
-0.0006203330185735448
-0.0005124143265262324
-0.000850908168047879
0.002141302433573874
-0.00063412917302823
-0.0005434233200322282
-0.0014918825497619735
0.0022681335045278
-0.000722008383042541
-0.0005459999850081386
-0.001218475677305885
0.00230835039191397
-0.0006491260368806945
-0.0006001610811240495
-0.0008253100988676613
0.002266105321568644
-0.0006654584845350368
-0.0005946825538898623
-0.0015155525196323346
0.002148238526777784
-0.0006847553797810169
-0.0006783944365932374
-0.0004316326209549931
0.0019605404948045153
-0.0006722074177167825
0.0016994060529443272
-0.0009104121115087424
-0.0006567724351603391
-0.0006893990944999823
0.001310122367149061
-0.0009254243217469719
-0.0008379972184522338
-0.0007616121905442965
0.0005729544743763017