# vtk DataFile Version 1.0
GRUMMP topologically 2D mesh
ASCII

DATASET UNSTRUCTURED_GRID
POINTS 4142 float
  0.9902132100051211  -0.0013897599745845   0.0000000000000000
  0.9878682672001325  -0.0017209544766007   0.0000000000000000
  0.9922830260938109  -0.0010965337451688   0.0000000000000000
  0.9852627687065505  -0.0020876945602550   0.0000000000000000
  0.9824126515147726  -0.0024873693035198   0.0000000000000000
  0.9941016532545700  -0.0008382294190312   0.0000000000000000
  0.9793229395886266  -0.0029189889321549   0.0000000000000000
  0.9759912936709813  -0.0033826574903297   0.0000000000000000
  0.9957253756688895  -0.0006072067599891   0.0000000000000000
  0.9724158418644283  -0.0038783672872607   0.0000000000000000
  0.9972114818934485  -0.0003956828894990   0.0000000000000000
  0.9685983419668763  -0.0044053177853816   0.0000000000000000
  0.9986172604849257  -0.0001958749290171   0.0000000000000000
  0.9645418982154840  -0.0049624143705746   0.0000000000000000
  0.9602493276520160  -0.0055486932126648   0.0000000000000000
  1.0000000000000000   0.0000000000000000   0.0000000000000000
  0.9557225436143375  -0.0061636003738353   0.0000000000000000
  0.9986172604763917   0.0001958749302285   0.0000000000000000
  0.0136778115501445  -0.0198442283865115   0.0000000000000000
  0.9509632892996972  -0.0068066585239019   0.0000000000000000
  0.0111799405480040  -0.0180409152078963   0.0000000000000000
  0.9972114818757430   0.0003956828920181   0.0000000000000000
  0.0164236219435115  -0.0216216850259729   0.0000000000000000
  0.9459737546847580  -0.0074771440326796   0.0000000000000000
  0.0194159763686392  -0.0233724637256901   0.0000000000000000
  0.0089312659290954  -0.0162123970812813   0.0000000000000000
  0.9957253756403164   0.0006072067640564   0.0000000000000000
  0.9353156997544615  -0.0088958032333210   0.0000000000000000
  0.0226532123065557  -0.0250954152174871   0.0000000000000000
  0.0261336316774566  -0.0267893559859237   0.0000000000000000
  0.0068429846519911  -0.0142695304151425   0.0000000000000000
  0.9237713702124288  -0.0104115615140689   0.0000000000000000
  0.0298554003449755  -0.0284531869488138   0.0000000000000000
  0.9941016532123735   0.0008382294250309   0.0000000000000000
  0.0050308200222286  -0.0123013782195995   0.0000000000000000
  0.0012596550434314  -0.0062543845982477   0.0000000000000000
  0.9113626015789812  -0.0120184565864932   0.0000000000000000
  0.0338165365583016  -0.0300859006297539   0.0000000000000000
  0.0005600587198625  -0.0041872521188657   0.0000000000000000
  0.0034956879705714  -0.0103096477045821   0.0000000000000000
  0.0380150486067802  -0.0316864834866382   0.0000000000000000
  0.0001400674572995  -0.0020989425108620   0.0000000000000000
  0.0424489169588349  -0.0332538061244847   0.0000000000000000
  0.8981160449036193  -0.0137076729882106   0.0000000000000000
  0.9922830260341767   0.0010965337536290   0.0000000000000000
  0.0022384105171692  -0.0082946477552229   0.0000000000000000
  0.0000000000000000  -0.0000000005380880   0.0000000000000000
  0.0471161050109934  -0.0347866680569130   0.0000000000000000
  0.8692172420003259  -0.0173025512123363   0.0000000000000000
  0.8840586048664243  -0.0154712341935952   0.0000000000000000
  0.8536242589802903  -0.0191927756559575   0.0000000000000000
  0.0520144653095357  -0.0362838744017245   0.0000000000000000
  0.9902132099234322   0.0013897599861408   0.0000000000000000
  0.0001400673054027   0.0020989413744649   0.0000000000000000
  0.0005600583994229   0.0041872509286527   0.0000000000000000
  0.0089312642537700   0.0162123956290166   0.0000000000000000
  0.0068429832427153   0.0142695290019493   0.0000000000000000
  0.0022384098100130   0.0082946464730838   0.0000000000000000
  0.0034956870455263   0.0103096463775504   0.0000000000000000
  0.0050308188630767   0.0123013768482443   0.0000000000000000
  0.0111799386902237   0.0180409137864515   0.0000000000000000
  0.8373107726191357  -0.0211334926288444   0.0000000000000000
  0.0624935355792051  -0.0391666954139108   0.0000000000000000
  0.9878682670932252   0.0017209544916756   0.0000000000000000
  0.0136778095139640   0.0198442269960848   0.0000000000000000
  0.8203090273240524  -0.0231167391866414   0.0000000000000000
  0.0738633143603066  -0.0418930499584099   0.0000000000000000
  0.8026551811301268  -0.0251343400368426   0.0000000000000000
  0.9852627685719384   0.0020876945791685   0.0000000000000000
  0.0861021386417074  -0.0444536409739349   0.0000000000000000
  0.7843840873894279  -0.0271778197795966   0.0000000000000000
  0.9824126513500548   0.0024873693265746   0.0000000000000000
  0.0991843265815398  -0.0468392532814141   0.0000000000000000
  0.0164236197329729   0.0216216836667636   0.0000000000000000
  0.7461418339277840  -0.0313078737465108   0.0000000000000000
  0.9793229393907722   0.0029189889597428   0.0000000000000000
  0.1130825286139299  -0.0490420520078216   0.0000000000000000
  0.7058944105034720  -0.0354399888107516   0.0000000000000000
  0.1277704618123611  -0.0510562827506626   0.0000000000000000
  0.1762568929815641  -0.0559042078350805   0.0000000000000000
  0.0194159739879911   0.0233724623981675   0.0000000000000000
  0.6639684116827792  -0.0395008026994765   0.0000000000000000
  0.1937838883744062  -0.0571083155282771   0.0000000000000000
  0.9759912934368556   0.0033826575228533   0.0000000000000000
  0.2119350336566717  -0.0581032139582273   0.0000000000000000
  0.1432165586985055  -0.0528747491799113   0.0000000000000000
  0.1593891568184451  -0.0544918670991958   0.0000000000000000
  0.0226532097601106   0.0250954139222151   0.0000000000000000
  0.6207078411914361  -0.0434191082996254   0.0000000000000000
  0.5764634620046084  -0.0471137377839725   0.0000000000000000
  0.9724158415910057   0.0038783673250912   0.0000000000000000
  0.2306739249637577  -0.0588890260835713   0.0000000000000000
  0.0261336289695199   0.0267893547234291   0.0000000000000000
  0.5315950381341085  -0.0505057454921963   0.0000000000000000
  0.4864703588817339  -0.0535094604401647   0.0000000000000000
  0.4414549182767121  -0.0560390634426787   0.0000000000000000
  0.9685983416513994   0.0044053178288238   0.0000000000000000
  0.2697570606452168  -0.0598365819607799   0.0000000000000000
  0.3969170552729402  -0.0580119076690758   0.0000000000000000
  0.0298553974799863   0.0284531857194991   0.0000000000000000
  0.9645418978552561   0.0049624144199126   0.0000000000000000
  0.3107174127482247  -0.0599745523566999   0.0000000000000000
  0.3532197168655907  -0.0593474025151865   0.0000000000000000
  0.9602493272443249   0.0055486932681955   0.0000000000000000
  0.0338165335406938   0.0300858994339835   0.0000000000000000
  0.0380150454409591   0.0316864823247920   0.0000000000000000
  0.9557225431564565   0.0061636004358678   0.0000000000000000
  0.0424489136491938   0.0332538049970267   0.0000000000000000
  0.0471161015618897   0.0347866669642923   0.0000000000000000
  0.9509632887889385   0.0068066585927330   0.0000000000000000
  0.9459737541185675   0.0074771441085412   0.0000000000000000
  0.0520144617255517   0.0362838733443521   0.0000000000000000
  0.9353156990700551   0.0088958033238094   0.0000000000000000
  0.0624935317401540   0.0391666944281135   0.0000000000000000
  0.0738633102849253   0.0418930490455120   0.0000000000000000
  0.9237713694002159   0.0104115616199952   0.0000000000000000
  0.0861021343485112   0.0444536401350998   0.0000000000000000
  0.9113626006299211   0.0120184567085017   0.0000000000000000
  0.0991843220904188   0.0468392525175462   0.0000000000000000
  0.8981160438094651   0.0137076731266115   0.0000000000000000
  0.1130825239435962   0.0490420513187447   0.0000000000000000
  0.8840586036192291   0.0154712343488011   0.0000000000000000
  0.1277704569818227   0.0510562821360933   0.0000000000000000
  0.8692172405930260   0.0173025513845012   0.0000000000000000
  0.1432165537277111   0.0528747486397878   0.0000000000000000
  0.8536242574066383   0.0191927758449732   0.0000000000000000
  0.1593891517258480   0.0544918666322352   0.0000000000000000
  0.8373107708732270   0.0211334928345504   0.0000000000000000
  0.1762568877862003   0.0559042074398506   0.0000000000000000
  0.8203090254010921   0.0231167394087162   0.0000000000000000
  0.1937838830953411   0.0571083152030304   0.0000000000000000
  0.2119350283118140   0.0581032137003017   0.0000000000000000
  0.8026551790260408   0.0251343402747870   0.0000000000000000
  0.2306739195716207   0.0588890258904683   0.0000000000000000
  0.7843840851007032   0.0271778200327233   0.0000000000000000
  0.2697570552113356   0.0598365818878674   0.0000000000000000
  0.7461418312636445   0.0313078740273454   0.0000000000000000
  0.3107174073396524   0.0599745523895525   0.0000000000000000
  0.3532197115457904   0.0593474026374948   0.0000000000000000
  0.7058944074605978   0.0354399891145804   0.0000000000000000
  0.6639684082655058   0.0395008030201497   0.0000000000000000
  0.3969170500997217   0.0580119078642495   0.0000000000000000
  0.6207078374111498   0.0434191086291270   0.0000000000000000
  0.5764634578798972   0.0471137381129498   0.0000000000000000
  0.5315950336908907   0.0505057458089039   0.0000000000000000
  0.4864703541532008   0.0535094607315534   0.0000000000000000
  0.4414549133024901   0.0560390636939180   0.0000000000000000
  0.9901595609719056  -0.0023783411927147   0.0000000000000000
  0.0326649145266362  -0.0334200843455863   0.0000000000000000
  0.9878329678703356  -0.0027145673674890   0.0000000000000000
  0.0733998606732272  -0.0440344159407381   0.0000000000000000
  0.9922372924577029  -0.0020726951087579   0.0000000000000000
  0.8846838814295012  -0.0208009306521702   0.0000000000000000
  0.9852539181750185  -0.0030832573491977   0.0000000000000000
  0.8205556230767344  -0.0253024477924150   0.0000000000000000
  0.9824277530968584  -0.0034836508822686   0.0000000000000000
 -0.0022154120548041  -0.0049277430541563   0.0000000000000000
[...]
POINT_DATA 4142
SCALARS continuity float
LOOKUP_TABLE default
0.004325157396554895
0.0042976763829617156
0.004286603552792587
0.004292652508015861
0.0042886370312559
0.004365709907498904
0.004289526290344439
0.004286966580826253
0.003906352876711951
0.004281429240334619
0.004959899097466924
0.0042742041336184975
0.0060309968992708005
0.004252011069052573
0.004236449714571902
0.00891738915840251
0.004212103442850265
0.015216495149709271
0.01001549611575232
0.0041719717518973395
0.01074645800127179
0.004840652540360842
0.009356753215572016
0.004109689950441378
0.008769438066110396
0.0115843202234676
0.0041553841694432336
0.003987752072672778
0.008248814686852115
0.00778795853365249
0.01245275907133164
0.0038564386371551223
0.007382011961009852
0.00457138686793401
0.013416753674967148
0.01600396059250391
0.003685501026543733
0.007024722847715009
0.016556975592918834
0.01436596069306694
0.006713788014752095
0.0169131190574647
0.006462318745919151
0.0034940805215471016
0.0043587103348499134
0.015250721445529292
0.016933325054829633
0.006297134344791367
0.0030309242172804705
0.003289395838519259
0.0027851636344757274
0.005961549470087799
0.004394015653177624
0.01655129192325307
0.015852402703579058
0.011241386080386485
0.012061949232614496
0.014996154876490081
0.013826155361875541
0.012925562160737434
0.010468360446231381
0.002470789810064536
0.00571008246169304
0.00433582641833363
0.009771507105384042
0.0021691817770493425
0.00546249832282208
0.001818856601842305
0.004312655824489275
0.005283383253068361
0.0014091448372468543
0.004282702379949418
0.005164132050486929
0.009145813231766818
0.0007372771432991922
0.004265484656053808
0.005091530575774727
-9.736928366761632e-05
0.005039035979298638
0.004829607655352445
0.008585700923203685
-0.001004741768894054
0.0046960221438449214
0.00425273617550685
0.004566613389103469
0.004988456231683208
0.004923989386721882
0.008088310279515742
-0.0018716437682860158
-0.0025796805093480763
0.004237433752813004
0.0042531259831561224
0.007645651461498904
-0.0029820346483308813
-0.0029240704952619243
-0.002295245482467487
0.004211153744682968
0.0035143353153628027
-0.0011103181165118675
0.007256367255530182
0.004194788381376812
0.0021217376641630907
0.00046319866986266225
0.004157889402154869
0.0069123697714120755
0.006610428482430638
0.00412388610778219
0.006364614044871558
0.006198985856646779
0.004073889617395575
0.003971522119529011
0.005868105899849757
0.0038335620116816114
0.005628101991783759
0.005418114789306677
0.003690573147040998
0.005264853945160916
0.003512388560653625
0.005161563552457085
0.003328875257304959
0.005096389532460171
0.0030653735552578325
0.00504833010980526
0.0028156066372584986
0.0050000065702989795
0.0024992681030784904
0.004935169967066856
0.002199844176646851
0.004836385337069618
0.0018496754950006384
0.004692560121068923
0.004546822516951409
0.001478024061556352
0.004194107300613704
0.001084103454594888
0.003421584363603631
0.00035311225031235937
0.001988879177892078
0.0002774009554118317
-0.0004814580040624737
-0.0014204746472150488
-0.0013699980897848897
-0.0023203323747409423
-0.003030565040985648
-0.0034107566875648705
-0.0033140801451031062
-0.0026291631815079214
0.0043372801667735696
0.0038322709808657866
0.0043018911894132615
0.0046548385577468675
0.004266137624177293
0.003457048619597363
0.004301140280752422
0.002201082481407005
0.004297381550484666
0.013572176525028035
0.004481678704812228
0.0077601707376945585
0.004298303013857523
0.008325971773887943
0.0042957207757043075
0.0043863982827859705
0.0038408581798970083
0.012139134911108528
0.00429058781027053
0.004745742937377557
0.004745790670821681
0.003192373925607014
0.004284137068368583
0.0025032004152201665
0.00420304620348128
0.0035702452246284717
0.004262245039636468
0.008590955545974605
0.004246884740858935
0.0046935886303900885
0.006305918497140682
0.0069024072517948456
0.006270650897664467
0.00514225175645526
0.004547726364288492
0.005009554088230365
0.0058078799002598495
0.004223004365707873
0.011718987774151073
0.002177287025927103
0.013752448954937357
0.009444677049330724
0.012923258119104004
0.004182664252109891
0.002270400575559496
0.010141172047719464
0.01409494160141075
0.005027847237438064
0.003417191570184399
0.008835837773254055
0.010601947063167035
0.004120376645751053
0.00703847670310496
0.008300115282698688
0.00953981664075351
0.01093794033309875
0.0035842775766793105
0.00381446827218604
0.015052627453588974
0.0039986778390354
0.011538520756662856
0.00782783024786996
0.015581896694720548
0.007409991111910556
0.00445975848382072
0.011846446944677914
0.004462147719666943
0.003867211324081889
0.009534960615112614
0.007043904769040061
0.004898209214112614
0.004701086189525147
0.012757669895626274
0.012872282831793046
0.002818408462703994
0.015968171807105237
0.011065982012862135
0.003695417468352153
0.003324660976786118
0.006723263697347028
0.013730663354369182
0.01671679525994695
0.0030647114487579027
0.013950983823394766
0.008198629958701254
0.006444214690097225
0.0050458118699237275
0.017214719706850942
0.003374311083625205
0.006222329816119959
0.015957937113356177
0.0035038945515343395
0.004566771705128441
0.00432365730437418
0.014112648618414167
0.015009998168110248
0.0031140345477901287
0.017283506446537367
0.00438857513237344
0.006070602009201617
0.009795201002644709
0.0030396565213168824
0.003530799818844183
0.0032987560109779372
0.003375743979041464
0.002794296788326373
0.005105772046867633
0.005810502292958371
0.0036692261910583196
0.004413147016717829
0.01593243432798914
0.0168360156945709
0.002866049723437904
0.016049987454869772
0.005233231995211458
0.010494619496127119
0.006037004927316756
0.011365006203718666
0.013119720906458649
0.014847778955233325
0.003302238713147546
0.013468741712944168
0.015551204441034468
0.012327427161758909
0.002648981786344939
0.009747838668205337
0.005412260757487879
0.0024792571265516046
0.00453021597730516
0.005545982974576932
0.0037236928038263096
0.00433922720213653
0.003086515331579344
0.009093172538471197
0.014939353556776688
0.002177813272484693
0.013496424306068592
0.0053401427569440526
0.012027422216815901
0.0018270189357564937
0.011578897800692198
0.004321144469224095
0.004690607177648242
0.00518555945066383
0.013230693804605067
0.001415445684432021
0.005639441966060904
0.0042912336587485065
0.004844308897543686
0.005086677809293518
0.00389673619456931
0.008529844865269831
0.009474070940664468
0.0007448384073149343
0.010899731218144904
0.004274893735340806
0.003158989067067933
0.0050302663965955735
0.005923567043593656
-9.022779043370592e-05
0.010348501600663406
0.004991033006470981
0.006279355058091739
0.004811717894775373
0.0033027380109595075
0.008035648875354065
0.004028324442512587
-0.000997383000685955
0.012663681227207565
0.00468540377697842
0.0041556026575917965
0.004261914428335634
0.01072249712525403
0.004561010852487461
0.009826075450676274
0.004952499645690822
0.011991769927356516
0.004897365144333837
0.0067329953679831555
0.007599707587904836
0.00708377466085803
-0.0018639553567261124
0.004150023839996312
-0.002571619152739247
0.011171947952220448
0.004247211096214811
0.007302667546034851
0.004257819847231518
0.011500922842431385
0.007216283082930266
0.005248053700399172
-0.0029726750538540156
0.008570139672273868
-0.0029134908783381916
0.008852004676175763
-0.0022831099273227535
0.0035721044563701825
0.004221145542325759
0.004212218935354782
0.0035225660181255787
0.002549136615809701
-0.001096666243176943
0.008008836594570292
0.006876812790852099
0.003774440219159153
0.0042050520094995105
0.0029027207975155862
0.0021351947264215835
0.0032550112509917182
0.0004772881642791018
0.004254303303097908
0.004168527532082167
0.0039384768434598755
0.006580448383469643
0.004279523255679759
0.006318317497988052
0.004452776181091958
0.004134976088990975
0.004296627606739942
0.006108361466841468
0.003867506450429376
0.005960423115641083
0.0010457154359037343
0.004085054205225775
0.007652611405346254
0.003982013836693416
0.004320394865419202
0.005716528122826015
0.003048396469144118
0.0038451326324157207
0.0052430390785552835
0.005463246360291506
0.0022454253707546454
0.005300063833098512
0.0043295262879695815
0.003701738885256111
0.011329494076271403
0.005174981141584179
0.0038947141595168837
0.003522833388983633
0.003298424200963526
0.005092902802007391
0.004337706314742339
0.0033395413920862113
0.003555113401966569
0.00504504547066076
0.0043440587858328845
0.0030754443607415947
0.001890926785149087
0.005010482023088937
0.004563864895507167
0.0028257830675556214
0.010310391784381452
0.004973695047731475
0.004346942541324137
0.0025090922044924383
0.004434468516782741
0.004918366571222806
0.004355660815961894
0.002209526923417809
0.0022685162077937574
0.00482783452657537
0.004329499606598569
0.0018590416264839614
0.0034041951904593194
0.004690537574774685
0.004359777999832645
0.004547488023113674
0.004766992955187325
0.0014882908102281283
0.004404974741934151
0.004208335212864688
0.0014763836528369862
0.0010909346827063366
0.005764893548830173
0.0034358507505087847
0.005362101799304552
0.0003623183468053581
0.006026706450781724
0.002007973830061275
0.0043990097786074135
0.00029624254840286934
0.006221523987611956
-0.0004729470156071371
0.004471644951061797
-0.0014114028883366156
0.005918213539505714
-0.0013522540268796973
0.0035483126721006153
-0.002310792163938539
0.006210295228903513
-0.003020122258781636
0.004727005716970333
-0.0033993210297878916
0.0016454044348695879
-0.0033007209717776857
0.006760600196586121
-0.002613529627053194
0.006342160465199284
0.0018486290187106574
0.003788897654099674
0.004368213707214254
0.0037794659767027006
0.0046085771722584115
0.0029416602743718876
0.0014366635155008344
0.013239703254123852
0.00433483234554625
0.004495503284171546
0.004603422366208858
0.011400448999089317
0.007072895265788702
0.001928555114397844
0.0007646814749298113
0.004725507086828805
0.00431619408596613
0.0038035596669141413
0.004626601976929077
0.004205008317629568
-7.062973074860463e-05
0.004617288131009858
0.004655808485301461
0.003954630964989789
0.004636841584764467
0.004859163071344392
0.0065179264581514025
0.010564396487033553
-0.0009779678640394853
0.011405894812556275
0.004551375541163908
0.00469876169876903
0.004300617152835472
0.009834044139049897
0.004461140708597633
0.005321591331942693
0.004676986571317888
0.011297484049532512
0.00467537435924527
0.004087397348393924
0.006081844166293723
0.004988306252384526
-0.0018433366916664445
0.00429694668420987
-0.0025492051420902776
0.009157767278292197
0.004283163669845648
0.009670304938485757
0.004199611162113516
0.0044915326055573026
0.005742653169916399
0.006061078159555236
-0.0029471751770601797
0.0015393231500846702
-0.0028837223004873637
0.004209304683157238
-0.0022492715954456188
0.009646018996201256
0.004254212115571265
0.006898348769884548
0.003504940763727949
0.003440652330275135
-0.0010609102315584276
0.005120454578764158
0.0054746133079948255
0.01088820802002482
0.004236654818111166
0.008737229051023714
0.002150311374312703
0.009316559833268146
0.0005088301446714338
0.004272649078806743
0.004197962354586694
0.010561991906747233
0.005263998948042563
0.007805095073676817
0.005097589886623384
0.006009320194062481
0.004163157065221075
0.0039773361293443795
0.004979575865332105
0.01010531723749663
0.0049195159843740035
0.004315941993644566
0.004111911090772631
0.009798516482443452
0.0040098100302069185
0.004342694450696974
0.004786812242852008
0.00862497712389785
0.0038729312650298054
0.004361101700804879
0.004644013981336227
0.0037160719728166155
0.004596279971281301
0.004338902458291678
0.0037290589807151115
0.002622090436587657
0.004581404231804816
0.004387242840100972
0.003548428172403255
0.0051366389755366365
0.004595261717777631
0.00503761650098948
0.0033637603079943144
0.0016337488686497836
0.004628977100073981
0.004398132481636518
0.00309875516332855
0.004092823003604391
0.00466492962204755
0.004289284782648156
0.002848637097523347
0.004546603403106388
0.0046896059609688534
0.004408509125875305
0.0025314549763400126
0.003992800961570929
0.0046890611177271505
0.0044172171093533885
0.0022313979986131258
0.008040017070651374
0.004647277454399115
0.004632829944750318
0.001880494209916326
0.003181153614875969
0.004552484283327017
0.004422080445234643
0.004445530531067523
0.0023155829420420182
0.0015081192162597179
0.0044335195455681466
0.0041482072858417774
0.009699016074382638
0.00111023314395038
0.00443247451833243
0.003416929685692431
0.0015527256853953312
0.0003796202182149903
0.004439877577197755
0.0020210090928207175
0.004382583464853407
0.00032590102536716797
0.004488679274706235
-0.0004555232923703356
0.0019578686709237902
-0.0013936369681950462
0.005999600373176814
-0.001317412825863427
0.00904971802336949
-0.0022921137302640074
0.0061547754235837075
-0.002998934931905247
0.004527642403399525
-0.0033748676225380725
0.006095546539026656
-0.0032718057326006794
0.004108741097151386
-0.0025809743458732426
0.006005168450627251
0.004046617035078944
0.0008024565459213701
0.005650611104120063
0.004379790460211859
0.009839695926871159
0.0037109169354633867
0.009713156441916133
-3.402702484317896e-05
0.00522062342028984
0.0038679490128918827
0.008359641922308522
0.0041734542037248175
0.005990655995122238
0.005926725942255247
0.009670378324861346
-0.0009406892887930979
0.0041811953716411245
0.0041788110694275325
0.005227664497618919
0.004363269718507566
0.004510019691368558
0.004171234888728488
0.008280362310939619
0.004006161808239996
0.009325708999897278
0.004112306240311392
0.005730212706203982
0.005190810411173079
0.006748443085305095
-0.0018036773686324868
0.008561912702001542
-0.002504446466243634
0.007473773524264988
0.004344495573691615
0.003581675653023358
0.00400244279097528
0.005044949228931625
0.004569673544320856
0.00935069019050646
-0.0028953927222043923
0.008759938045091443
-0.002824134816484594
0.008053060457468827
-0.0021836719373259585
0.004368718077119184
0.004313340313147302
0.009144052124298798
0.0034140929738066426
0.008148527638391469
-0.0009975862655094256
0.0024194669606341273
0.004076154806378474
0.004234395197541231
0.004294896207138466
0.008854530849350294
0.0021449221261607156
0.004415395531902488
0.0005525013968128015
0.008346601255840363
0.004254310224711659
0.004443801637855944
0.0037067183198357763
0.007999459941318598
0.0034452498825213746
0.004464253825909973
0.00421920430016792
0.0038632421074993244
0.003293534646877292
0.003833894021411295
0.003239299551360064
0.0027251024382653464
0.004166864228202964
0.00449350251554931
0.004063206026420599
0.00482965695931222
0.003179330029714805
0.006012920065040194
0.0039271121784722725
0.004992979840606606
0.003132988632542688
0.0014182115032302792
0.003218532883345755
0.004506003874996013
0.003781612087576803
0.004187410188736544
0.0033536837101573003
0.004412416403331086
0.0035989158961846784
0.00466632768536477
0.00351748929327698
0.004518680637430517
0.0034116649388644623
0.004148274581079835
0.0036920894283350553
0.004527948944754609
0.003144900654630428
0.007720495409178783
0.00385777693836947
0.004719568586519165
0.0028931382971363966
0.0033160078012013606
0.004001754665452598
0.004532319204302334
0.0025748364042525573
0.0024146248201614585
0.0041115222878400325
0.0045440104459139275
0.0022735447330884152
0.008295724438296995
0.004172030314993564
0.0045556677241747195
0.0019214495208405857
0.0006961815954315176
0.004170195200095993
0.004551422761666494
0.004148310384566034
0.0038491640176104964
0.001546606609655823
0.004599801256095253
0.003945027432884305
0.0020522951587304077
0.0011461178785643657
0.00549208733867527
0.003321444157949146
0.007874163836966734
0.00041380391059724357
0.0055809685375271395
0.002012574728286732
0.004647690301303154
0.0003679657672811744
0.0054313215167809655
-0.0004219185578561092
0.005447042685028638
-0.0013586890284682388
0.005109112907036532
-0.0012546161459577594
0.0002615158465752415
-0.0022543738522398877
0.005196156905920018
-0.002955967613551344
0.004936794462770613
-0.003324549411139418
0.004147724294454255
-0.0032128998193488717
0.0016290214264554452
-0.002515796580544437
0.0043038068347597104
0.005715795539626731
0.004492068297961088
0.005739105418609978
0.0018555851656579688
0.004855230493867104
0.007392787088890304
0.004176116311291418
0.000863041534796413
0.005216588445244955
0.004474230343449461
0.00876169929929087
0.002132543174262224
0.008275626361113148
2.4838831699210514e-05
0.006277286073524277
0.0024287306407588852
0.007112607532829615
0.0031956348465565438
0.006750709746658372
0.006687453117317499
0.008266393853042729
-0.0008800584802877456
0.004313666449568662
0.0033540088148969666
0.0034147724820586083
0.0044584181795368815
0.004687998750133087
0.0034923030933844816
0.007274085068304665
0.002717424840911023
0.008461111914880498
0.002978566798411732
0.005730471047548914
0.005937025949627133
0.007159420892514933
-0.0017383862010814646
0.007481108416796613
-0.0024309363843792358
0.0075211636707863076
0.004439577223261009
0.0036621081677547553
0.0034979810086319734
0.004994615291997131
0.005171850527966983
0.00804543012747381
-0.002811138493714222
0.008156988852774954
-0.0027292017586291544
0.00695591575671014
-0.00208672642225088
0.004506136762819833
0.004406444668856026
0.007898369696346429
0.003124017013065116
0.007849410440615006
-0.0009205944646571097
0.005092067403934803
0.0044169993676059765
0.0046361226789175935
0.004387259679097113
0.007694572352321893
0.0020403640174211928
0.004557489992229604
0.000568517203144532
0.007113560562018457
0.004344251520177912
0.00458843019387306
0.0037114587334402755
0.007080148801368169
0.0030842594478326115
0.004611057046048338
0.0043075342033904365
0.0039503114215040346
0.0025627953344850357
0.004666799423193955
0.0021608227993045806
0.002852753281051026
0.004253419212816649
0.004644991588095904
0.0018195274020530643
0.005742996560904801
0.004011177855729776
0.004974919786097852
0.0015094449881081112
0.003218230186319031
0.0014626890431375444
0.004658732258291323
0.0038641082896193864
0.003780864048066664
0.00157666290550729
0.004688842520908525
0.0036776915929701524
0.004811405755778764
0.001800897809254807
0.00467242657906705
0.0034874679470120904
0.004309292606992619
0.0020870034529533936
0.0046794201087934535
0.0032176509523474625
0.006909132531379222
0.0023908611624875033
0.004822417005308998
0.0029632138754465327
0.0033907687206402985
0.0026862410011508748
0.004678709398929158
0.0026424003173975237
0.002537016294617833
0.002952192001400527
0.0046836227428984235
0.0023387809794916613
0.007089116873974124
0.0031715722540634345
0.004719160067972389
0.0019848591013633928
0.0020671378692861024
0.0033264269324294487
0.00469214792331461
0.0034531204264533696
0.005169926155889604
0.001606799224860863
0.004729866555249227
0.0034284424930327477
0.002169764598302829
0.0012026762383370636
0.005381464859033596
0.003021898862056969
0.006848739758710639
0.00046715227056467107
0.005463419704574086
0.0019025125554159683
0.004786914211624993
0.00038131738198372383
0.005412298510343139
-0.000368676452962911
0.005354940210190365
-0.0013032509067669705
0.005244677446274605
-0.0011786750263573442
0.0009104373345181207
-0.002192767074728966
0.005184105384393381
-0.002885365134004413
0.0050831555862164346
-0.0032419476807955708
0.004265466183105222
-0.0031191715784833255
0.0017407473266629247
-0.0024192297009722166
0.004437391852352347
0.005087321208400306
0.00461549443170032
0.006240651260884058
0.00011121001730117377
0.005025435819798494
0.007425975562594755
0.004337103628409727
0.0009488817324621298
0.004346093367787332
0.0046019644605892005
0.007672596864796192
0.0001887697560739234
0.00704541864753982
0.00010936582824179522
0.006432281958454878
0.0004164998760612789
0.006028066608984257
0.0014544692666264942
0.0065971619177869235
0.007094870119029221
0.007054391006676023
-0.0007926187271733181
0.004476924142104174
0.0017931526172008162
0.0032801371003093526
0.004589926249478661
0.004886271104584125
0.002129574615625261
0.006359476297643338
0.0007336110589384061
0.007470821380473857