# vtk DataFile Version 1.0
GRUMMP topologically 2D mesh
ASCII

DATASET UNSTRUCTURED_GRID
POINTS 4142 float
  0.9902132100051211  -0.0013897599745845   0.0000000000000000
  0.9878682672001325  -0.0017209544766007   0.0000000000000000
  0.9922830260938109  -0.0010965337451688   0.0000000000000000
  0.9852627687065505  -0.0020876945602550   0.0000000000000000
  0.9824126515147726  -0.0024873693035198   0.0000000000000000
  0.9941016532545700  -0.0008382294190312   0.0000000000000000
  0.9793229395886266  -0.0029189889321549   0.0000000000000000
  0.9759912936709813  -0.0033826574903297   0.0000000000000000
  0.9957253756688895  -0.0006072067599891   0.0000000000000000
  0.9724158418644283  -0.0038783672872607   0.0000000000000000
  0.9972114818934485  -0.0003956828894990   0.0000000000000000
  0.9685983419668763  -0.0044053177853816   0.0000000000000000
  0.9986172604849257  -0.0001958749290171   0.0000000000000000
  0.9645418982154840  -0.0049624143705746   0.0000000000000000
  0.9602493276520160  -0.0055486932126648   0.0000000000000000
  1.0000000000000000   0.0000000000000000   0.0000000000000000
  0.9557225436143375  -0.0061636003738353   0.0000000000000000
  0.9986172604763917   0.0001958749302285   0.0000000000000000
  0.0136778115501445  -0.0198442283865115   0.0000000000000000
  0.9509632892996972  -0.0068066585239019   0.0000000000000000
  0.0111799405480040  -0.0180409152078963   0.0000000000000000
  0.9972114818757430   0.0003956828920181   0.0000000000000000
  0.0164236219435115  -0.0216216850259729   0.0000000000000000
  0.9459737546847580  -0.0074771440326796   0.0000000000000000
  0.0194159763686392  -0.0233724637256901   0.0000000000000000
  0.0089312659290954  -0.0162123970812813   0.0000000000000000
  0.9957253756403164   0.0006072067640564   0.0000000000000000
  0.9353156997544615  -0.0088958032333210   0.0000000000000000
  0.0226532123065557  -0.0250954152174871   0.0000000000000000
  0.0261336316774566  -0.0267893559859237   0.0000000000000000
  0.0068429846519911  -0.0142695304151425   0.0000000000000000
  0.9237713702124288  -0.0104115615140689   0.0000000000000000
  0.0298554003449755  -0.0284531869488138   0.0000000000000000
  0.9941016532123735   0.0008382294250309   0.0000000000000000
  0.0050308200222286  -0.0123013782195995   0.0000000000000000
  0.0012596550434314  -0.0062543845982477   0.0000000000000000
  0.9113626015789812  -0.0120184565864932   0.0000000000000000
  0.0338165365583016  -0.0300859006297539   0.0000000000000000
  0.0005600587198625  -0.0041872521188657   0.0000000000000000
  0.0034956879705714  -0.0103096477045821   0.0000000000000000
  0.0380150486067802  -0.0316864834866382   0.0000000000000000
  0.0001400674572995  -0.0020989425108620   0.0000000000000000
  0.0424489169588349  -0.0332538061244847   0.0000000000000000
  0.8981160449036193  -0.0137076729882106   0.0000000000000000
  0.9922830260341767   0.0010965337536290   0.0000000000000000
  0.0022384105171692  -0.0082946477552229   0.0000000000000000
  0.0000000000000000  -0.0000000005380880   0.0000000000000000
  0.0471161050109934  -0.0347866680569130   0.0000000000000000
  0.8692172420003259  -0.0173025512123363   0.0000000000000000
  0.8840586048664243  -0.0154712341935952   0.0000000000000000
  0.8536242589802903  -0.0191927756559575   0.0000000000000000
  0.0520144653095357  -0.0362838744017245   0.0000000000000000
  0.9902132099234322   0.0013897599861408   0.0000000000000000
  0.0001400673054027   0.0020989413744649   0.0000000000000000
  0.0005600583994229   0.0041872509286527   0.0000000000000000
  0.0089312642537700   0.0162123956290166   0.0000000000000000
  0.0068429832427153   0.0142695290019493   0.0000000000000000
  0.0022384098100130   0.0082946464730838   0.0000000000000000
  0.0034956870455263   0.0103096463775504   0.0000000000000000
  0.0050308188630767   0.0123013768482443   0.0000000000000000
  0.0111799386902237   0.0180409137864515   0.0000000000000000
  0.8373107726191357  -0.0211334926288444   0.0000000000000000
  0.0624935355792051  -0.0391666954139108   0.0000000000000000
  0.9878682670932252   0.0017209544916756   0.0000000000000000
  0.0136778095139640   0.0198442269960848   0.0000000000000000
  0.8203090273240524  -0.0231167391866414   0.0000000000000000
  0.0738633143603066  -0.0418930499584099   0.0000000000000000
  0.8026551811301268  -0.0251343400368426   0.0000000000000000
  0.9852627685719384   0.0020876945791685   0.0000000000000000
  0.0861021386417074  -0.0444536409739349   0.0000000000000000
  0.7843840873894279  -0.0271778197795966   0.0000000000000000
  0.9824126513500548   0.0024873693265746   0.0000000000000000
  0.0991843265815398  -0.0468392532814141   0.0000000000000000
  0.0164236197329729   0.0216216836667636   0.0000000000000000
  0.7461418339277840  -0.0313078737465108   0.0000000000000000
  0.9793229393907722   0.0029189889597428   0.0000000000000000
  0.1130825286139299  -0.0490420520078216   0.0000000000000000
  0.7058944105034720  -0.0354399888107516   0.0000000000000000
  0.1277704618123611  -0.0510562827506626   0.0000000000000000
  0.1762568929815641  -0.0559042078350805   0.0000000000000000
  0.0194159739879911   0.0233724623981675   0.0000000000000000
  0.6639684116827792  -0.0395008026994765   0.0000000000000000
  0.1937838883744062  -0.0571083155282771   0.0000000000000000
  0.9759912934368556   0.0033826575228533   0.0000000000000000
  0.2119350336566717  -0.0581032139582273   0.0000000000000000
  0.1432165586985055  -0.0528747491799113   0.0000000000000000
  0.1593891568184451  -0.0544918670991958   0.0000000000000000
  0.0226532097601106   0.0250954139222151   0.0000000000000000
  0.6207078411914361  -0.0434191082996254   0.0000000000000000
  0.5764634620046084  -0.0471137377839725   0.0000000000000000
  0.9724158415910057   0.0038783673250912   0.0000000000000000
  0.2306739249637577  -0.0588890260835713   0.0000000000000000
  0.0261336289695199   0.0267893547234291   0.0000000000000000
  0.5315950381341085  -0.0505057454921963   0.0000000000000000
  0.4864703588817339  -0.0535094604401647   0.0000000000000000
  0.4414549182767121  -0.0560390634426787   0.0000000000000000
  0.9685983416513994   0.0044053178288238   0.0000000000000000
  0.2697570606452168  -0.0598365819607799   0.0000000000000000
  0.3969170552729402  -0.0580119076690758   0.0000000000000000
  0.0298553974799863   0.0284531857194991   0.0000000000000000
  0.9645418978552561   0.0049624144199126   0.0000000000000000
  0.3107174127482247  -0.0599745523566999   0.0000000000000000
  0.3532197168655907  -0.0593474025151865   0.0000000000000000
  0.9602493272443249   0.0055486932681955   0.0000000000000000
  0.0338165335406938   0.0300858994339835   0.0000000000000000
  0.0380150454409591   0.0316864823247920   0.0000000000000000
  0.9557225431564565   0.0061636004358678   0.0000000000000000
  0.0424489136491938   0.0332538049970267   0.0000000000000000
  0.0471161015618897   0.0347866669642923   0.0000000000000000
  0.9509632887889385   0.0068066585927330   0.0000000000000000
  0.9459737541185675   0.0074771441085412   0.0000000000000000
  0.0520144617255517   0.0362838733443521   0.0000000000000000
  0.9353156990700551   0.0088958033238094   0.0000000000000000
  0.0624935317401540   0.0391666944281135   0.0000000000000000
  0.0738633102849253   0.0418930490455120   0.0000000000000000
  0.9237713694002159   0.0104115616199952   0.0000000000000000
  0.0861021343485112   0.0444536401350998   0.0000000000000000
  0.9113626006299211   0.0120184567085017   0.0000000000000000
  0.0991843220904188   0.0468392525175462   0.0000000000000000
  0.8981160438094651   0.0137076731266115   0.0000000000000000
  0.1130825239435962   0.0490420513187447   0.0000000000000000
  0.8840586036192291   0.0154712343488011   0.0000000000000000
  0.1277704569818227   0.0510562821360933   0.0000000000000000
  0.8692172405930260   0.0173025513845012   0.0000000000000000
  0.1432165537277111   0.0528747486397878   0.0000000000000000
  0.8536242574066383   0.0191927758449732   0.0000000000000000
  0.1593891517258480   0.0544918666322352   0.0000000000000000
  0.8373107708732270   0.0211334928345504   0.0000000000000000
  0.1762568877862003   0.0559042074398506   0.0000000000000000
  0.8203090254010921   0.0231167394087162   0.0000000000000000
  0.1937838830953411   0.0571083152030304   0.0000000000000000
  0.2119350283118140   0.0581032137003017   0.0000000000000000
  0.8026551790260408   0.0251343402747870   0.0000000000000000
  0.2306739195716207   0.0588890258904683   0.0000000000000000
  0.7843840851007032   0.0271778200327233   0.0000000000000000
  0.2697570552113356   0.0598365818878674   0.0000000000000000
  0.7461418312636445   0.0313078740273454   0.0000000000000000
  0.3107174073396524   0.0599745523895525   0.0000000000000000
  0.3532197115457904   0.0593474026374948   0.0000000000000000
  0.7058944074605978   0.0354399891145804   0.0000000000000000
  0.6639684082655058   0.0395008030201497   0.0000000000000000
  0.3969170500997217   0.0580119078642495   0.0000000000000000
  0.6207078374111498   0.0434191086291270   0.0000000000000000
  0.5764634578798972   0.0471137381129498   0.0000000000000000
  0.5315950336908907   0.0505057458089039   0.0000000000000000
  0.4864703541532008   0.0535094607315534   0.0000000000000000
  0.4414549133024901   0.0560390636939180   0.0000000000000000
  0.9901595609719056  -0.0023783411927147   0.0000000000000000
  0.0326649145266362  -0.0334200843455863   0.0000000000000000
  0.9878329678703356  -0.0027145673674890   0.0000000000000000
  0.0733998606732272  -0.0440344159407381   0.0000000000000000
  0.9922372924577029  -0.0020726951087579   0.0000000000000000
  0.8846838814295012  -0.0208009306521702   0.0000000000000000
  0.9852539181750185  -0.0030832573491977   0.0000000000000000
  0.8205556230767344  -0.0253024477924150   0.0000000000000000
  0.9824277530968584  -0.0034836508822686   0.0000000000000000
 -0.0022154120548041  -0.0049277430541563   0.0000000000000000
[...]
POINT_DATA 4142
SCALARS continuity float
LOOKUP_TABLE default
0.004952693448965851
0.004920972366211885
0.004903933806114654
0.004910547210313649
0.004867140499304436
0.0049661816036305735
0.004822624031390397
0.004782647824605343
0.0043521418521023396
0.004741508156071157
0.006650030137583548
0.004693691296558253
-0.016320286633079755
0.004646155437395338
0.004598018413384145
-0.0015855072326046611
0.004564449842103249
-0.01462011892376448
-0.003938979097196569
0.0045377683872590896
-0.004150123145646643
0.0065719269070776045
-0.003756460245209152
0.00446754287301877
-0.0033616455811778133
-0.0026941551161255373
0.005244906621339912
0.004416625031489263
-0.0027949509405358545
-0.0020918863596439707
-0.002702895106305648
0.004388887761622954
-0.001344561553053454
0.005626857449351318
-0.0013518404358916387
0.00210734061434372
0.0043204154714658344
-0.0005958781850910285
0.0028073086574068825
-0.00010399707955317212
0.00018954137205834908
0.003480730731191101
0.0008732666096575269
0.004229895335428899
0.005353052618249204
0.001110856771636374
0.004213116885531047
0.003066888399956031
0.003921074167011142
0.004056805718694894
0.003725330797362175
9.613910916404997e-05
0.005359721029224102
0.0058811644800934775
-0.005286211486732432
-0.0013861429760285288
-0.00101280417378556
0.010580696326305433
-0.004921100022784344
-0.0010719374492010763
-0.003077600931652936
0.003621683059479209
0.005347941708664707
0.0052826212293308715
-0.00311414745391542
0.0033596919149319385
0.0042613076854192125
0.0031491834824615155
0.005232766731610049
0.00528007430166064
0.002590626930602084
0.005199239748987562
0.005981881071519373
-0.003126608854162277
0.0012419617432007396
0.0051452495315032175
0.0062696864260075565
0.0004960265746466666
0.006196580911309338
0.0043249272220064585
-0.0029018897453115936
-0.00015854951660018428
0.0034666641743581637
0.005108553853097634
0.00335322127359985
0.005798621408211107
0.005151722904079205
-0.0024186000911739112
-0.00076619664538389
-0.0012288727101991536
0.005065747326324431
0.00029685300109160817
-0.0017926287175560691
-0.001575107444871593
-0.0021501083925746173
-0.0032509862444756246
0.005032218453532685
-0.0006139436918368771
-0.00471923291388213
-0.0010966388190925664
0.005012250148444593
-0.0048701581429071664
-0.005593609239891469
0.004989899043535761
-0.0003692398992741135
0.00039895961931465024
0.004942542267455369
0.0010796934592157829
0.0032795141274653736
0.0049226683312967754
0.004806487349915388
0.00028938297189770536
0.004735557192660265
0.005566037949856015
0.004475277253977892
0.004661014668145254
0.005533262830543531
0.004603899812578879
0.006288730849367654
0.004412319212455554
0.00662519387655721
0.004272586395048488
0.006584212505986797
0.0040751546355920956
0.006197814659288211
0.003929835481789367
0.005553262525014695
0.003723606232244433
0.004724766483101501
0.0036216757666664404
0.003857685992143529
0.0037075079451759797
0.003175864311402962
0.0005739261627615722
0.002934270449148582
-0.0006105463148116618
0.0016130736643134372
-0.005140913861328624
-0.006065786650704533
0.0005252368679435739
-6.711999474092092e-05
-0.005254941670376451
-0.0007090224746953311
-0.0012751326272716064
-0.001783442761331757
-0.002513113760319463
-0.003740210725613604
0.0050087443812996775
0.0007760341277493954
0.004969018667283546
0.006262415309115645
0.004954988241333105
0.0041892491189258205
0.004962335282089703
0.003411537735877707
0.004917524932801312
0.00432665189300564
0.005136729983237312
-0.000686822762770547
0.004875817094669093
0.005086113517545513
0.0048325043579404885
0.005334778957716451
0.005191812894109713
0.001738977921823025
0.0047941646003515845
0.00749195915526471
0.005797161072336791
0.004041817802289291
0.0047465581981899485
0.0036735762522412336
0.01223289017017027
0.0016990178750038612
0.004700005731284264
-0.0010308968076640805
0.004647576911721266
0.005395394678028581
0.006583201679209005
0.007717612052077652
0.005007894427618293
0.001825846595635211
0.0015957229384791498
0.0016709209459117743
0.004600168802844464
0.004609367614758799
-0.0012011200518383246
0.012836433477324187
0.004789436362173839
0.0016833148849706965
-0.0029860277920784133
0.004580874677895798
0.0019337402199352202
0.0012188144440135602
0.00435072482613844
0.006705217748230262
0.002410393163633131
0.0019650597594287984
-0.0005229526821523467
0.004501444611092864
0.003043327387156855
0.0022807768998507195
-0.000751787330358848
0.0014356198175735947
0.0043257430078591525
0.005696768625466007
0.003393007888172252
0.004450668190938947
0.005582645165894164
0.002631984398424118
0.004616420935948007
0.003042633222872452
0.005388719116367478
0.0011172291200266158
0.005439126734009667
0.00441996290068387
0.003590392954466978
0.003448903399881972
0.003807647884316385
0.005831672592072524
0.002726870416308316
0.0011672688421295024
0.003782093209921103
0.0020247753018266456
0.0034558069289156493
0.004352152850687908
0.004117411895373922
0.0038547284730529024
0.005135197308756638
0.0025831686014303685
0.003980192734601862
0.0012633898287347767
0.0033089075628603007
0.004275355998528617
0.005248844881010987
0.0033909713679020972
0.004164052943322531
0.004542003767180177
0.004770386233793838
0.004261119146354837
0.0054132959427503225
0.00535311631899326
0.0013073121567245445
0.0015617620187799242
0.004011471306076539
0.004128981894802637
0.005363015665352591
0.005794239555419403
0.005498559346003341
0.0039559122283986965
0.004287395635491099
0.004094371599135459
0.004152542600286424
0.003761735852789677
0.0036656319074800893
0.00418661851998763
0.004367191920721972
0.005420187501838358
0.0042655230328161025
0.004336050663748558
0.003811836650433179
0.0018779574125376611
0.003218937936151946
0.0030281591919131897
0.0028563148838453892
0.00291320546838136
0.00013318288574265142
0.005735154047586507
0.0031224284822563343
-0.0023624513121126363
0.0034750916843143058
0.0013058573176023657
0.0003307343470807794
0.0026286366492018765
0.002528811121064455
0.003658540626410544
0.005457971777610479
0.007749877764197368
0.004378666929370211
0.0053271817978604525
0.0008423139984059451
0.002784150511912954
0.0024757756836997773
0.0033981087619973883
0.004948591913069234
0.006469064153026371
-0.0008824192220139496
0.003198090781971189
0.005280991748458856
0.005284476966163603
0.005844294731401631
0.0071277690736584595
0.004509671003384575
0.0026169538546618877
0.0017910320903965103
0.005251906770940308
0.005364896109284064
0.007539187768660159
0.004448683491263404
0.0028163709572895427
-0.0003205673114770211
0.0012884839435581968
-0.001720912745642953
0.005198787095907655
-0.0002463370761056631
0.007585469124759591
0.001008518128907318
0.0005425295472339621
0.00030968090391548554
0.007313873040662148
0.00019843900747112958
0.005016597976759953
0.004041299594202044
0.0029014406383029104
0.004480937743280988
-0.0001074823076504032
0.0053044408604514355
0.004052119986851983
0.00509771571655284
0.005163910191231277
0.002611278478016793
0.003809453410505789
-0.0020158230666349614
0.006746710312926825
2.8094304319481065e-05
0.005958531436420509
-0.000589468669599785
0.0031262866988209194
0.004656016165034995
-0.0007077509425120035
0.0045340149933958875
-0.0011603132150848291
0.00034566071305247126
0.0051214666784482445
-0.0012841611535405765
0.0008074335488838663
0.00488748701742462
0.003421696529088548
0.006881765778425915
-0.0014920207317028864
-0.0010528381711445837
-0.002049217669035463
-0.0023422399684225425
-0.0031264062856897557
0.004196171627922577
0.005085643523562191
0.004612452413937963
-0.00029786924127737826
0.003697017091714734
-0.004565319118838711
-0.0018371224704572587
0.0037570473143341684
-0.0008291744494073446
0.0050648245897788775
0.004392466434505492
-0.0046217175017475125
0.0067747710959250385
-0.005399042767590969
0.004640177450678437
0.0050396571855995595
0.004310653721450053
0.004110728325718636
0.004676558233474255
0.004506641567491304
0.005363750691860556
0.004988613369045189
0.004724302789387982
0.00474606499019628
0.004464149547846401
0.006003624923140992
0.00018147256327866822
0.004967055224984353
-0.0013196732896253928
0.0048412814194122855
0.004768307583244055
0.004366044219772442
0.0038234264237485874
0.0047681350083254295
0.00676628445932832
0.007942022618212696
0.0034335388666894297
0.006651594803013563
0.004809792879407626
0.004690810569000446
0.004238023191010492
0.007346215970195834
0.004084901421121102
0.004632466853752198
0.005901876571407581
0.007810932097094936
0.004850108397644002
0.004440543675692735
0.002693503716623395
0.007906506236280447
0.004888510123318308
0.004303512102659888
0.003227412396766692
0.007668998994072526
0.00528406524010934
0.004108606870083989
0.0017744188406748987
0.007116300293438895
0.004929682360214789
0.003964592026844078
0.005312734877633646
0.0063289751860682265
0.004980068014290172
0.003759084203736859
-2.343548050377263e-05
0.005388603975323986
0.0049295674012827155
0.003659796064778209
0.006912099837382012
0.004415833114317813
0.004990980870282989
0.0041423853090036674
0.005739777030129549
0.0032208388550762235
0.00505441326398575
0.0010599596437241864
0.0026466682853220173
0.002962132970038591
0.005285116945745742
-0.00031283438324345076
0.0022006405706883185
0.0016551491435162701
0.0019994269179843998
-0.004907790672234135
0.005280020547866107
-0.005885061054577368
0.0015256609261716971
0.0005701507248172676
-0.0012363093407951181
-1.7717126261105988e-05
0.001596072080951826
-0.005111587639501013
0.007652595099713725
-0.0006531166952530839
0.0036140736443516772
-0.0012111374454514283
0.005431329816257432
-0.0017060354009502238
0.005905256137860545
-0.0024207444145508505
-0.0014178251973133902
-0.0036232526854141573
0.004246681960057381
0.00320771758502675
0.004380417553719744
0.005286230165173894
0.004418713222578811
0.007053984824027953
0.0038339292992669704
0.002629453151777328
0.003633783108939597
0.00524987554397522
0.002202588520107509
0.007586522200797981
0.0007122161736958357
-0.0003218625815776726
0.0013074642693105165
0.0012998006065668094
0.0057498508031773275
0.0051951606498840544
0.00012308705879983202
0.007727707158794819
-0.00012732378062866922
0.00055374163092564
0.005469320016011986
0.007514962788715824
0.0044934543283701
0.00527299206252378
0.0023971145436582596
0.00017564739342734975
-0.0003440979452483693
-9.731623958501302e-05
0.00551182586975406
0.004297979598835619
-0.0009586913687788235
0.00516388364108419
0.005207772862907883
0.004089326388091343
-0.0016545910137853055
0.006980975900825713
0.005067818501002463
0.006209914254140599
0.004527296040211332
0.000806978796353124
0.005275463758851941
-0.0006945117710524857
0.005240137533569646
-0.0011399561711671515
0.0006608018771927218
0.00512500884292021
-0.0011380509108462984
0.0010245301701787015
0.00018611488488508513
0.0014836098654918799
-0.0021223642349735153
-0.0014635057522301056
0.0026514860609592843
-0.0020082690388856304
0.004582822133676136
-0.003074690243555668
0.001235665429726438
0.005093542767440754
-0.002331489906620298
-0.0001225624230751029
0.003954604041486747
-0.004504609795274037
0.006219450570275591
0.002163454755823629
0.005391820885711158
0.005073158499324635
-0.001987867833146305
-0.004519921007682643
0.0028690341650958197
-0.00532729935298285
0.0046681197478966804
0.005050544899971585
0.001937051561088564
0.0028269729101531864
-0.0022533105134665827
0.003463404972250868
0.004192944441735301
0.005003119489358117
0.005796093628963096
0.003874471265805624
0.0015421238511095891
0.005440745762706423
0.004696483182066793
0.004985643692638324
0.0048468193994690755
0.004859208022523445
0.004731046003689542
0.003959468736396701
1.394996520260992e-05
0.004791130225674277
0.004776567013885974
0.007639675907380939
0.004115442974245448
0.006385623490765993
0.0054464339131081105
0.004709580345692152
0.0037161097340147843
0.007207576059710829
0.004818954465862147
0.004653044170467398
0.00023853491749878438
0.007788621043143557
0.005610988411658209
0.004457301574827829
0.00472248417972666
0.007981154297439905
0.004862658873088507
0.004320283244654883
0.004062906353769799
0.007806482749424039
0.004817214726110171
0.004123446370513207
0.005384259371168961
0.007292980243886298
0.004901317144027656
0.003976244249504797
0.0044857388818506415
0.006528068640734739
0.004940369430581071
0.0037668486924264805
-0.00039154557366910807
0.005598280726957286
0.005244671681563773
0.003665153990323149
0.0037270951374446214
0.004620153502339222
0.004983537538599261
0.004381268041397336
0.0034429510368613136
0.003223764564603823
0.005038985181071476
0.0012423073933757046
0.00428890303210633
0.002964949112237696
0.005034296762963928
-0.00016571529993206864
0.004469466096857603
0.0016571911434142567
0.005052344276617647
-0.004827857493221772
0.0037820572204308547
-0.0058312840060825225
0.00511755933854428
0.0005728739763982447
0.0032357192507087443
-1.681099245644573e-05
0.003900618236194258
-0.005067463339606662
0.00215910552598852
-0.0006499590424219397
0.0038210168461841817
-0.0012014832252477954
0.005333821208417232
-0.0016874423674452658
0.003975099380448973
-0.002391817634317033
0.0013567577304429263
-0.0035855651288553034
0.005550389230063232
0.0045431935646202855
0.0013121577405840418
0.004282583988936106
0.005223116518994154
0.0009445362010934289
0.00797038976208883
0.0055414654660931135
0.0005675305358679677
-0.0014651403794147466
0.007885967825152182
0.004825919752581979
0.0058145490785986974
-0.0015373899351187634
-0.0012864708009474454
0.005065552914379587
-7.899160917146248e-05
0.004580076835510348
0.004843792494898803
0.0050664998217388344
0.005189627762453442
0.0052671737040572994
0.004656114637196008
0.001241040935762026
0.007441420979038932
0.0002855593795090132
0.006723620412926738
0.0023538481440552746
-0.00087838080916603
-0.0014310756587776667
-0.0006664889207037823
0.0017068939117097209
-0.0010926920828636798
-0.0011964446521560916
0.005150323305367268
0.003696321174603475
0.0015156129678641891
0.006170290496677321
-0.00027264478117466207
0.00505629622167223
-0.0013927308205176788
-0.00041053270170467876
-0.0019123501751014522
0.002631314892822911
-0.0029524098119706756
0.004729059905851776
0.0051203739846620066
0.0029170659593236773
0.0002680807580550278
-0.0008307289715768138
-0.004358675321744732
0.0028673099188515033
0.0004643737802186772
0.005017207569649261
0.005102143235440439
0.0021872493287975314
-0.004264302658794751
0.004757298416947374
-0.0051477455185836305
0.004457924747488959
0.005079811793712274
0.0047901632542262495
0.0012832743234067274
0.0008300813899473573
0.002120122933551046
0.004834766766178119
0.005033561808132499
0.003860374918129681
0.002755345122324435
0.0036100061808842514
0.004459502753455699
0.0037004607974945444
0.005015683789035854
0.004878942627637574
0.0048883978072416425
0.005547774778066511
0.0033326967618704222
0.002341237562691657
0.004816885265138038
0.005766191515261147
0.006939887389712989
0.0021269695567314385
0.0059913982125087755
0.004924613480160355
0.0047351858902203335
0.003558801140117803
0.0069967933867082
0.00467949370603109
0.0046731110423450534
0.005384224126679714
0.007765421399549958
0.0049640754481335096
0.004476971064080348
0.004423804870159534
0.008122329752163192
0.005006069898595223
0.0043379485711173785
0.0006105177249401381
0.008074337009854297
0.005340701853108632
0.004137723905219336
0.003465019623368837
0.007649640125503399
0.005046666750210509
0.003987918678659296
0.0034234187652135133
0.006945545932655843
0.0051071175726475565
0.0037756078777249156
0.003939514705619959
0.00604710631721621
0.005082004198448042
0.0036675644910762716
0.0019625268320677624
0.005079926853067206
0.005113848130106997
0.004872192142121634
0.0027473388449953274
0.0032247445428497715
0.005187312228474522
0.0016694189810491649
0.0032075725531147074
0.002962541405371837
0.0036152632740411436
0.00017157129211093042
0.001981564216768379
0.0016525475500124786
0.003416154492580954
-0.004617383035418498
0.005325359108136129
-0.005690462660659032
0.0033808772824584074
0.0005691806090919472
0.003953728144069706
-1.7214323742016107e-05
0.0039897232655878734
-0.004955056522446356
0.003542666442820814
-0.000641702374245308
0.0043829777753872775
-0.0011756892859779305
0.005456814319424609
-0.0016407078087664654
0.004910156531465938
-0.0023217167752877643
0.002618968673022974
-0.0034932618752605516
0.00463862180476417
0.0038125551132553934
0.0053055129347816705
0.00030779415890894515
0.0070558138536176325
0.005378890004752002
-0.000728855682929746
0.0045686374931838535
0.0013160700641439238
0.004602745265938253
0.005248100063300347
0.0014996763350539528
0.00774907239226927
0.005198924906218337
0.0005709449650589501
0.0003891415250001654
0.00798026646153976
0.004431491253785315
0.00648936297260967
0.00043963381181490337
-0.000945383613330014
0.004734815635651406
-6.28033156820672e-05
0.0046132762561718055
0.005608132322309757
0.0017910885332458586
0.005216633886771491
0.00519861304588778
0.005501595149227644
0.001164852213049256
0.007787714938472343
0.001067494095099612
0.007262001803750238
0.003470933515120477
-0.0009869967928096569
0.00044976030640127653
-0.000622250197365045
0.0016286793286727963
-0.0010122485073432038
0.0004833099529787562
0.0051733656977380965
0.003222175103368745
0.002317103989270302
0.005556871547065716
-0.0008793950896598167
0.00444399726132365
-0.0012653019381047466
0.0007038395491975502
-0.0017375097475535093
0.002401231102877632
-0.0027384757040392394
0.00477052728290258
0.005140894703259013
0.0030595750815303677
0.0009403913343950603
0.0005513006071793762
-0.004107560693745211
0.00384437771354876
-0.0006265492152967543
0.004696280986659409
0.005124285059472872
0.002227849081740216
-0.0038076389787217385
0.004801408157108123
-0.0048325866817541955
0.004113606451599933
0.005101443066331764
0.004833675070080029
-0.00020444013623971942
0.0008614934059575903
0.00037961215319668286
0.004882275907493137
0.005056449576035408
0.0033633912195454416
0.0009168644606441345
0.004326400697436852
0.0024847765458495667
0.0035910955152684346
0.005039300206171921
0.004928551876272432
0.0017495174231067982
0.0029930562569282625
0.004835393385490602
0.005181950525741364
0.005074600713345154
0.0019493731516358468
0.004681685325315791
0.004977611529892465
0.004750978781518628
0.0015590283328103791
0.006040872421865001
0.004861634335660502
0.00468487466347385
0.005341284649736788
0.007154434072357877
0.005018668199158388
0.0044845262577480755
0.004187268066463
0.007841091277866693
0.005060733115327183
0.004341112504284544
0.0007514856382825009
0.008075085663557031
0.0052419037315533734
0.004136831107138604
0.0030139588667964607
0.007886676426755746
0.005101446212059581
0.003978908854234802
0.003308178275316287
0.007364735336894741
0.005165101208817573
0.0037584666800104297
0.0036237356817426323
0.006600886386974135
0.005137312319003128
0.0036468122268441183
0.0008179296575748003
0.005723500236223309
0.005156735156089239
0.00560350556668711
0.002734148877980656
0.0031994591522354144
0.005220984419527693
0.002367858134819423
0.00309553733491701
0.0029351881079080896
0.004122055864007103
0.0007593425653768366
0.0017754931788277434
0.0016197355136987667
0.004130585484237608
-0.004232937501815865
0.005288429504044976
-0.005440000936647424
0.0041283437740497675
0.0005410078544708912
0.005086627921892736
-3.42150706165747e-05
0.004495684125637221
-0.004762767929675504
0.0013349871710627143
-0.0006359033696760707
0.004519248026004142
-0.001133740556846724
0.005227854200683797
-0.0015565704542831063
0.004889205454079074
-0.002193514009924251
0.002500905942072678
-0.0033320800594823278
0.004677452401012765
0.0037637823376101874
0.0053132232976391865
0.002189688137687003
0.0050665111282915025
0.005210416492883663
0.0004946550304481926
0.00451731003361586
0.0012752263749314684
0.003365861807065645
0.005250650680583635
0.0013921240864697378
0.006274702427268372
0.004760267758957748
0.000551799985592405
0.0019488705438264618
0.007060875882634422
0.004067998152514348
0.006973439515389127
0.0016213541271127175
0.0004591942989237132
0.004374992857015135