# vtk DataFile Version 1.0
GRUMMP topologically 2D mesh
ASCII

DATASET UNSTRUCTURED_GRID
POINTS 4142 float
  0.9902132100051211  -0.0013897599745845   0.0000000000000000
  0.9878682672001325  -0.0017209544766007   0.0000000000000000
  0.9922830260938109  -0.0010965337451688   0.0000000000000000
  0.9852627687065505  -0.0020876945602550   0.0000000000000000
  0.9824126515147726  -0.0024873693035198   0.0000000000000000
  0.9941016532545700  -0.0008382294190312   0.0000000000000000
  0.9793229395886266  -0.0029189889321549   0.0000000000000000
  0.9759912936709813  -0.0033826574903297   0.0000000000000000
  0.9957253756688895  -0.0006072067599891   0.0000000000000000
  0.9724158418644283  -0.0038783672872607   0.0000000000000000
  0.9972114818934485  -0.0003956828894990   0.0000000000000000
  0.9685983419668763  -0.0044053177853816   0.0000000000000000
  0.9986172604849257  -0.0001958749290171   0.0000000000000000
  0.9645418982154840  -0.0049624143705746   0.0000000000000000
  0.9602493276520160  -0.0055486932126648   0.0000000000000000
  1.0000000000000000   0.0000000000000000   0.0000000000000000
  0.9557225436143375  -0.0061636003738353   0.0000000000000000
  0.9986172604763917   0.0001958749302285   0.0000000000000000
  0.0136778115501445  -0.0198442283865115   0.0000000000000000
  0.9509632892996972  -0.0068066585239019   0.0000000000000000
  0.0111799405480040  -0.0180409152078963   0.0000000000000000
  0.9972114818757430   0.0003956828920181   0.0000000000000000
  0.0164236219435115  -0.0216216850259729   0.0000000000000000
  0.9459737546847580  -0.0074771440326796   0.0000000000000000
  0.0194159763686392  -0.0233724637256901   0.0000000000000000
  0.0089312659290954  -0.0162123970812813   0.0000000000000000
  0.9957253756403164   0.0006072067640564   0.0000000000000000
  0.9353156997544615  -0.0088958032333210   0.0000000000000000
  0.0226532123065557  -0.0250954152174871   0.0000000000000000
  0.0261336316774566  -0.0267893559859237   0.0000000000000000
  0.0068429846519911  -0.0142695304151425   0.0000000000000000
  0.9237713702124288  -0.0104115615140689   0.0000000000000000
  0.0298554003449755  -0.0284531869488138   0.0000000000000000
  0.9941016532123735   0.0008382294250309   0.0000000000000000
  0.0050308200222286  -0.0123013782195995   0.0000000000000000
  0.0012596550434314  -0.0062543845982477   0.0000000000000000
  0.9113626015789812  -0.0120184565864932   0.0000000000000000
  0.0338165365583016  -0.0300859006297539   0.0000000000000000
  0.0005600587198625  -0.0041872521188657   0.0000000000000000
  0.0034956879705714  -0.0103096477045821   0.0000000000000000
  0.0380150486067802  -0.0316864834866382   0.0000000000000000
  0.0001400674572995  -0.0020989425108620   0.0000000000000000
  0.0424489169588349  -0.0332538061244847   0.0000000000000000
  0.8981160449036193  -0.0137076729882106   0.0000000000000000
  0.9922830260341767   0.0010965337536290   0.0000000000000000
  0.0022384105171692  -0.0082946477552229   0.0000000000000000
  0.0000000000000000  -0.0000000005380880   0.0000000000000000
  0.0471161050109934  -0.0347866680569130   0.0000000000000000
  0.8692172420003259  -0.0173025512123363   0.0000000000000000
  0.8840586048664243  -0.0154712341935952   0.0000000000000000
  0.8536242589802903  -0.0191927756559575   0.0000000000000000
  0.0520144653095357  -0.0362838744017245   0.0000000000000000
  0.9902132099234322   0.0013897599861408   0.0000000000000000
  0.0001400673054027   0.0020989413744649   0.0000000000000000
  0.0005600583994229   0.0041872509286527   0.0000000000000000
  0.0089312642537700   0.0162123956290166   0.0000000000000000
  0.0068429832427153   0.0142695290019493   0.0000000000000000
  0.0022384098100130   0.0082946464730838   0.0000000000000000
  0.0034956870455263   0.0103096463775504   0.0000000000000000
  0.0050308188630767   0.0123013768482443   0.0000000000000000
  0.0111799386902237   0.0180409137864515   0.0000000000000000
  0.8373107726191357  -0.0211334926288444   0.0000000000000000
  0.0624935355792051  -0.0391666954139108   0.0000000000000000
  0.9878682670932252   0.0017209544916756   0.0000000000000000
  0.0136778095139640   0.0198442269960848   0.0000000000000000
  0.8203090273240524  -0.0231167391866414   0.0000000000000000
  0.0738633143603066  -0.0418930499584099   0.0000000000000000
  0.8026551811301268  -0.0251343400368426   0.0000000000000000
  0.9852627685719384   0.0020876945791685   0.0000000000000000
  0.0861021386417074  -0.0444536409739349   0.0000000000000000
  0.7843840873894279  -0.0271778197795966   0.0000000000000000
  0.9824126513500548   0.0024873693265746   0.0000000000000000
  0.0991843265815398  -0.0468392532814141   0.0000000000000000
  0.0164236197329729   0.0216216836667636   0.0000000000000000
  0.7461418339277840  -0.0313078737465108   0.0000000000000000
  0.9793229393907722   0.0029189889597428   0.0000000000000000
  0.1130825286139299  -0.0490420520078216   0.0000000000000000
  0.7058944105034720  -0.0354399888107516   0.0000000000000000
  0.1277704618123611  -0.0510562827506626   0.0000000000000000
  0.1762568929815641  -0.0559042078350805   0.0000000000000000
  0.0194159739879911   0.0233724623981675   0.0000000000000000
  0.6639684116827792  -0.0395008026994765   0.0000000000000000
  0.1937838883744062  -0.0571083155282771   0.0000000000000000
  0.9759912934368556   0.0033826575228533   0.0000000000000000
  0.2119350336566717  -0.0581032139582273   0.0000000000000000
  0.1432165586985055  -0.0528747491799113   0.0000000000000000
  0.1593891568184451  -0.0544918670991958   0.0000000000000000
  0.0226532097601106   0.0250954139222151   0.0000000000000000
  0.6207078411914361  -0.0434191082996254   0.0000000000000000
  0.5764634620046084  -0.0471137377839725   0.0000000000000000
  0.9724158415910057   0.0038783673250912   0.0000000000000000
  0.2306739249637577  -0.0588890260835713   0.0000000000000000
  0.0261336289695199   0.0267893547234291   0.0000000000000000
  0.5315950381341085  -0.0505057454921963   0.0000000000000000
  0.4864703588817339  -0.0535094604401647   0.0000000000000000
  0.4414549182767121  -0.0560390634426787   0.0000000000000000
  0.9685983416513994   0.0044053178288238   0.0000000000000000
  0.2697570606452168  -0.0598365819607799   0.0000000000000000
  0.3969170552729402  -0.0580119076690758   0.0000000000000000
  0.0298553974799863   0.0284531857194991   0.0000000000000000
  0.9645418978552561   0.0049624144199126   0.0000000000000000
  0.3107174127482247  -0.0599745523566999   0.0000000000000000
  0.3532197168655907  -0.0593474025151865   0.0000000000000000
  0.9602493272443249   0.0055486932681955   0.0000000000000000
  0.0338165335406938   0.0300858994339835   0.0000000000000000
  0.0380150454409591   0.0316864823247920   0.0000000000000000
  0.9557225431564565   0.0061636004358678   0.0000000000000000
  0.0424489136491938   0.0332538049970267   0.0000000000000000
  0.0471161015618897   0.0347866669642923   0.0000000000000000
  0.9509632887889385   0.0068066585927330   0.0000000000000000
  0.9459737541185675   0.0074771441085412   0.0000000000000000
  0.0520144617255517   0.0362838733443521   0.0000000000000000
  0.9353156990700551   0.0088958033238094   0.0000000000000000
  0.0624935317401540   0.0391666944281135   0.0000000000000000
  0.0738633102849253   0.0418930490455120   0.0000000000000000
  0.9237713694002159   0.0104115616199952   0.0000000000000000
  0.0861021343485112   0.0444536401350998   0.0000000000000000
  0.9113626006299211   0.0120184567085017   0.0000000000000000
  0.0991843220904188   0.0468392525175462   0.0000000000000000
  0.8981160438094651   0.0137076731266115   0.0000000000000000
  0.1130825239435962   0.0490420513187447   0.0000000000000000
  0.8840586036192291   0.0154712343488011   0.0000000000000000
  0.1277704569818227   0.0510562821360933   0.0000000000000000
  0.8692172405930260   0.0173025513845012   0.0000000000000000
  0.1432165537277111   0.0528747486397878   0.0000000000000000
  0.8536242574066383   0.0191927758449732   0.0000000000000000
  0.1593891517258480   0.0544918666322352   0.0000000000000000
  0.8373107708732270   0.0211334928345504   0.0000000000000000
  0.1762568877862003   0.0559042074398506   0.0000000000000000
  0.8203090254010921   0.0231167394087162   0.0000000000000000
  0.1937838830953411   0.0571083152030304   0.0000000000000000
  0.2119350283118140   0.0581032137003017   0.0000000000000000
  0.8026551790260408   0.0251343402747870   0.0000000000000000
  0.2306739195716207   0.0588890258904683   0.0000000000000000
  0.7843840851007032   0.0271778200327233   0.0000000000000000
  0.2697570552113356   0.0598365818878674   0.0000000000000000
  0.7461418312636445   0.0313078740273454   0.0000000000000000
  0.3107174073396524   0.0599745523895525   0.0000000000000000
  0.3532197115457904   0.0593474026374948   0.0000000000000000
  0.7058944074605978   0.0354399891145804   0.0000000000000000
  0.6639684082655058   0.0395008030201497   0.0000000000000000
  0.3969170500997217   0.0580119078642495   0.0000000000000000
  0.6207078374111498   0.0434191086291270   0.0000000000000000
  0.5764634578798972   0.0471137381129498   0.0000000000000000
  0.5315950336908907   0.0505057458089039   0.0000000000000000
  0.4864703541532008   0.0535094607315534   0.0000000000000000
  0.4414549133024901   0.0560390636939180   0.0000000000000000
  0.9901595609719056  -0.0023783411927147   0.0000000000000000
  0.0326649145266362  -0.0334200843455863   0.0000000000000000
  0.9878329678703356  -0.0027145673674890   0.0000000000000000
  0.0733998606732272  -0.0440344159407381   0.0000000000000000
  0.9922372924577029  -0.0020726951087579   0.0000000000000000
  0.8846838814295012  -0.0208009306521702   0.0000000000000000
  0.9852539181750185  -0.0030832573491977   0.0000000000000000
  0.8205556230767344  -0.0253024477924150   0.0000000000000000
  0.9824277530968584  -0.0034836508822686   0.0000000000000000
 -0.0022154120548041  -0.0049277430541563   0.0000000000000000
[...]
POINT_DATA 4142
SCALARS continuity float
LOOKUP_TABLE default
-0.0028250671941894194
-0.0027239527504751134
-0.0030363485773354597
-0.0026249476663533916
-0.002481904741534076
-0.0025413419581175253
-0.002343990424906414
-0.0022405689812883896
-0.0027004270389108464
-0.002188863210819513
-0.0031733304856108023
-0.0020401410080785813
0.013455564451884047
-0.00200882221854895
-0.0018879791330995818
-0.0001449647251091975
-0.0017937584091663442
0.013457530005341682
0.0008737747120013387
-0.0018070352349012267
-0.0003586211958631372
-0.0034769397302664333
0.0025233220098035353
-0.0015813518882420265
0.0037994164720218694
-0.005688802250646511
-0.0037375015729269614
-0.0014116996256924154
0.004726319219599126
0.005340711549669119
-0.006831770076921531
-0.0010686001310435751
0.005802395444711762
-0.003137095919505333
-0.010963394242109837
-0.019127644884212824
-0.0009180807622089919
0.006178818014469888
-0.020276656046012843
-0.014327688469075901
0.006388579844681061
-0.021416717151128903
0.0067261787344496254
-0.0008874987617970659
-0.0034010989378254327
-0.017144723324665864
-0.023236754400966505
0.0028796656047181323
-0.0011433101550148265
-0.000957484546976729
-0.001216355285217488
0.013012080388697563
-0.0029628854773119015
-0.02824025625836548
-0.001244641746925569
-0.008458906493807632
-0.01077929245035627
-0.03918967828615918
-0.002084775254755461
-0.011827989035944723
-0.0026487697577147846
-0.0014002251489513289
0.0016422471461265181
-0.0027646451181689655
-0.0007757597492343677
-0.0015922790516974914
0.007215192089089746
-0.001488687274163696
-0.0025520081039024606
0.005999657567838021
-0.0023201094535447745
-0.002454015425459186
0.004851367283033432
0.0013524259893990989
-0.0027577978837818847
-0.002304338765183893
0.003990298698545254
-0.004403567770948512
0.0032455427528640733
0.001206312678074924
0.003037023837395672
-0.0057346155500555525
8.974120069411693e-05
-0.0021673451261730713
-0.0039650057086107
0.0025602374046221833
0.0018712656792080943
0.004168317752494828
-0.006880363028810721
-0.007878980745300761
-0.002030445450881131
-0.0016481380240664179
0.004954073270408674
-0.008675629577011299
-0.00936681186152254
-0.010074429386943215
-0.0019804282888364294
-0.009598479441527561
-0.010516883486908348
0.005532223771237574
-0.0018468319323590736
-0.008114415524777676
-0.01019838387969439
-0.001814690220380833
0.005974304741694984
0.0062185232617886915
-0.0016556053102686284
0.006593353090757417
0.0027716631926603575
-0.0015064213565945384
-0.0015191451619908512
0.01296710088070079
-0.0012637662672282052
0.0016444039544228366
0.007238104086457902
-0.0009401659092266501
0.00598084338091913
-0.0007649825210423849
0.004788267275870659
-0.0007408802401584908
0.003904067292364983
-0.0008748492230017754
0.0031589826779310323
-0.0010004859682526605
0.00249560631676373
-0.001199228280460578
0.001831275349396413
-0.001348455683261366
0.0011751244312257123
-0.0015365916442943882
5.428377164270764e-05
-0.004004638366475968
-0.0015085737494560116
-0.0017386317679893332
-0.0022269233286602358
-0.009744866929649999
-0.0028249034530533883
-0.008335559682789068
-0.010367913725932855
-0.0044291323292794775
-0.005759444720523935
-0.010584837997880089
-0.006877785926492168
-0.007894905542492387
-0.008700536290176452
-0.009373667297267841
-0.010076564305326302
-0.0027848140390691134
-0.0018542045267664403
-0.002753696391748661
0.001533035623728504
-0.0030836780977628927
-0.0005586340399370997
-0.002659817664138481
-0.0015870467380310225
-0.002520762468407341
-0.011972639980304147
-0.0021565229591744084
-0.006875645208046858
-0.0023846771457421054
-0.011609068029579965
-0.0022753853722437167
-0.002627642707674023
-0.003749050359896516
-0.00997804468244351
-0.002227398996249032
-0.0047098657440507565
0.003310493976359402
-0.0007666609486329492
-0.0020813565565436145
-0.0013797610005471474
-0.0016589809746236717
-0.0018300981894012179
-0.0020523570093963915
-0.006952724704369474
-0.0019267741505765259
-0.001924991848980016
0.010041909336573151
0.008713310290601954
0.0031079803411259463
0.006858896317981863
0.00792960594745902
0.006908535763975008
0.003436998004828521
-0.0018283183848533714
-0.006664846222720491
-0.0010987549761070263
-0.012289467201948179
-0.013389771950182766
-0.0007759025334656177
-0.0018402007668474878
-0.0018086266503582198
-0.013695695735410433
-0.016931981500567808
0.0024013775585351315
-0.0012546501833941084
-0.012195838048293802
-0.008817958310687544
-0.0016082827252288082
-0.008493289401326282
-0.010816324422492122
-0.008225545543234104
-0.0154767058415031
-0.0006927719626078964
-0.004332271736891891
-0.013787256006612805
-0.0014385710741781383
-0.014005269502315756
-0.009437730446949377
-0.015598946751392997
-0.008103181865679081
-0.0029023296858559154
-0.015265478799065816
-0.0027569078092313177
-0.001096717274701913
-0.011146508323681907
-0.0067829969870788565
0.0025049259104593462
-0.002731021978929564
-0.010844671019422769
-0.015392521028504268
-0.0011916113088495115
-0.014611045003671478
-0.011419589680925936
-0.0009466313756597764
-0.0009265032355830779
-0.005519250975581601
-0.013162536715195315
-0.014860861543477972
-0.0011125660439943966
-0.015024943440006159
-0.009848380810128263
-0.0043636562120308595
-0.003975453130622621
-0.015958740855317375
-0.003592226667821148
-0.002909123928500477
-0.014892046395796355
-0.0009179618208998609
-0.0024827173808529977
-0.0033825903176254754
-0.010817937649781407
-0.014705212438122952
-0.0009777655160020007
-0.017698693840105206
-0.003305122060900842
-0.004335850254299775
-0.013274560464057639
-0.0011790914577432556
-0.0008446631273168845
-0.0009996367065401974
-0.0007827521924339998
-0.00125706326052734
-0.001819896342651623
0.0023784796631013128
-0.00045473024691291864
-0.002920335525560889
-0.013745632942618836
-0.018912727396928487
-0.001065663936608116
-0.013521942481656835
-0.002873073054942564
-0.017970158685858273
-0.007272349313769697
-0.018286194695011804
-0.009646381184312436
-0.02276485253905415
0.00210391207818707
-0.0046422112576959594
-0.012878729691797243
-0.014564152100049478
0.0005427912089431065
-0.015945288040784284
-0.0034324068428348503
-0.0014414551289104532
-0.0024135641952156297
-0.004660635905618977
-0.0008696514271461418
-0.002790918668974147
0.0002707319697487409
-0.015026617838933432
-0.011929458242050313
-0.0016398267477676137
-0.013741852487431554
0.0014739155058951829
-0.008492782414534966
-0.0015533972315000736
-0.013155422948197082
-0.002591250271785909
-0.003010947947370692
0.0012145633560826006
-0.013680780359868529
-0.0023609528119227148
-0.003944373495331858
-0.0025004059829896947
-0.0012637115923085252
0.0008339914581407722
-0.0010081570842060605
-0.013356492846702185
-0.007189146926563125
-0.00282315118256103
-0.007218149954662977
-0.0023467904942836956
0.0004035746987925949
0.0006074853331532954
-0.004403657196353054
-0.004474938485878835
-0.0084663516924411
0.0003929638104666072
-0.004757439288762217
-0.0005298936307586309
-0.0004870179986765534
-0.011576545134246028
-0.001337666688524288
-0.00581829108298424
-0.016608419911233054
-0.0013678419395588791
-0.005029836514204114
-0.0022131609179076184
-0.01056296914018294
-0.00510148498123607
-0.006733765142303157
0.00015165987185331855
-0.005346535590380047
-0.00016519331947889763
-0.005091401719206414
-0.009978739284472942
-0.009771051711834058
-0.006980972390506854
-0.001489041389837163
-0.008003396236138998
-0.0077470963010649405
-0.0020782573120558543
-0.005365611954066634
-0.0029085349736046426
-0.012752546610416061
-0.008497726764601197
-0.0017950076688677153
-0.008827526562403144
-0.00530362304428093
-0.009561513185179542
-0.005342053192730522
-0.010324356192246241
-0.00025521627865322485
-0.002024614564992308
-0.0017135719070657809
-0.010366600125645027
-0.0012626551611290638
-0.010844125212323226
-0.0056047287291637465
-0.007067751911722366
0.0005646540685569947
-0.0018877892152387404
-0.014088508339434622
-0.008695859680931025
-0.0046391002413064325
-0.010631598038865459
-0.0016981764265881925
-0.0018535947765032882
0.00026337373322293594
-0.005742635369602741
-0.0017944237193578932
-0.0045493002424261365
-0.0023224818885391957
-0.001690788440263163
-0.001911372417251609
-0.003046995049090329
-0.00044241283861275193
-0.004455527922024745
-0.008442688245267444
-0.0015441611604413935
-0.0043072728636417
-0.0015479065072805697
-0.001933910309465412
0.0023202732305553113
-0.0006187663102225974
-0.001291876598036969
-0.0014768184967656718
-0.004671509059501437
-0.0014843167808355298
0.0014869517692906297
-0.0020755117367931694
-0.0009666342124877334
-0.012155857494379075
0.0011862672565287268
-0.0038157361002937647
-0.000794075133665992
0.0010718474346259087
0.0007631645491796308
-0.0021202668331079277
-0.0007722453297611832
-0.0008473288120996773
0.0005130532712579902
-0.0022189308347407575
-0.0009091152914578731
-0.0014148792869153896
0.0003000091380963506
-0.0025319635278910025
-0.0010388217172991312
-0.009495148897909207
8.230178061446822e-05
-0.0023450016767797223
-0.0012378566176847823
-0.0021265977620823877
-0.00020959731012465207
-0.0024834350185393463
-0.00139396328382441
0.00348435604158858
-0.0005633955270084792
-0.002952537584172915
-0.0015870207895875472
0.0005527031318035224
-0.0014053638819716415
-0.002582997712150024
-0.005143335720870857
-0.002410784255191585
-0.0015741096688447263
-0.0026460346474201837
-0.0029995599407149605
-0.002244937825230488
-0.0022694123528901097
-0.0029906110040153963
-0.010512504615930077
0.001585436677254933
-0.0028923605514865197
-0.0030059867207872073
-0.008917320525697308
-0.002062831816359239
-0.010801256416104982
-0.003355579902468447
-0.004501406690514101
0.0005291375102129338
-0.005844152058906624
-0.002414836753994336
-0.010911269711317964
-0.00010421324029666593
-0.006981512672882386
-0.0026894038499035815
-0.00802130035518604
-0.001475725706235774
-0.00885577441887257
0.00013552971698055306
-0.009569091396600666
-0.0033132741230997953
-0.01032682190210663
-0.003658099360720787
-0.00150245129519969
-0.00012196547839012046
-0.0024160504084263543
-0.0007032116808988328
0.0011471032305076134
-0.0008726934572887208
-0.0023198359768832897
-0.011489819057029237
-0.0023313759820786876
-0.005473615010488654
0.0006319935755282732
-0.008831114840073243
-0.006325559768304979
0.0026234026168577367
-0.002782565640392667
-0.0026787604487067966
-0.0021807120665547856
0.0018794731293057944
0.0003121363015336789
-0.0018402121886500165
-0.004446608553652296
-0.0019935243537572435
7.262110707103449e-05
-0.0008308648408801772
-0.0007917966821993897
0.0009793726496893694
-0.005725246766208205
-0.007263723394700903
-0.005799920469554043
-0.014584346782867205
-0.0015929828695696916
-0.001821606948752206
-0.002054551682867743
-0.012524851726003592
-0.0053998832616289506
-0.001861645454864357
-0.00015367336578874302
-0.014346254339989418
-0.0004467147099553128
-0.0011389763983520212
-0.0052294317350877265
-0.0006420509836278743
-0.006968141289262185
-0.0039567024023663645
-0.007992041282600325
-0.007927533654541396
-0.001926270552060911
-0.006012888575834557
-0.0030576752254136003
0.0014386239964628515
-0.004731963933987201
-0.0020964823802449356
-0.008817963250652656
-0.0021256209154800624
-0.009551530735398108
-0.0012738527603283097
-0.01031078601673651
-0.009240064751911267
-0.001882408111662507
-0.0025651432606772447
-0.010474813270772706
-0.00018163118440398456
-0.010827933434021568
-0.002093190929570532
-0.004167362064010881
-0.016307454383914337
-0.0017465200423943854
-0.004067845427210289
-0.008693775158468194
-0.010490197785051841
-0.010612271319608338
-0.0014964175210820446
-0.001721444425252692
-0.008953867133982637
-0.0036041340161999304
-0.0033296353075888564
-0.003020433784429337
-0.007922124173447388
-0.0015682541286718317
-0.005372815665943427
-0.0019171871328784247
-0.0093015734843778
-0.00407153346264731
-0.0014676347501727327
-0.001428488699910911
-0.012157565683742046
-0.001440123039607293
-0.0015529172750941142
0.0024581194604141737
-0.006080449967081369
-0.001196842976598305
-0.0016675389590586147
-0.004712870740455855
9.245295973276868e-05
0.0015504967898376319
-0.004990854483010022
-0.0008830800566371227
-0.001090932817849731
0.0011240071333439392
-0.001673626452708872
-0.0007220879151496018
0.0009634397234394186
0.0005661104966450806
-0.0014796702717997233
-0.0007030013666100326
-0.0033686526683035295
0.00021989352760457622
-0.0018177991477022388
-0.0008417056543084605
0.0005923583060507185
-2.379440288723106e-05
-0.0034881403972916915
-0.0009723203971423989
-0.0019114813273014945
-0.00022878814017804962
-0.001852204564419389
-0.001174567275147776
-8.463378706724531e-05
-0.0004982684097684541
-0.0019450108673028307
-0.001333827205546366
-0.004549709653581414
-0.0008310576584666397
-0.0022718629210968415
-0.0015318661474775636
-0.0003442384180110064
-0.0016342128530951873
-0.002066640945623964
-0.005441804739690771
-0.001325664485874229
-0.0015253411029873903
-0.0022003818304132225
-0.003147672624391036
-0.011707780271576899
-0.0022318583547499666
-0.0026285110756104385
-0.01061890791899645
0.001086971834281159
-0.0028530754198833816
-0.002289181468448896
-0.008912355352441729
0.0027480891926405216
-0.010781449977013616
-0.002341323624269653
-0.0044755017086427
-0.0012771743920938358
-0.0058258840381595735
-0.0026001455155648103
-0.010892851300664422
-0.00965814850113776
-0.006968027793660179
-0.0030600266238828867
-0.008011036916243157
-0.0017249198031045433
-0.008847244498930708
-0.0025970286195122943
-0.009561035689838553
0.003280986114137911
-0.010313939399675402
-0.0031865774478807246
-0.0005454216479001645
-0.002715373386992847
0.0009504742241418268
-0.0019150924258636538
-0.00806569452059993
-0.0005233731548782046
-0.01383319837422013
-0.00440271067980668
0.0002413987372937203
-0.0007757897680744122
-0.010994254361618744
-0.0014547111275432416
-0.000290682495150441
-0.002560671651568856
-0.013522900884760724
-0.005772169268258152
-0.0008248302632850595
-0.002182009867042716
0.00032867206081394813
-0.0017940442802454844
-0.003621053678741754
-0.005982266416543812
-0.008522534147196286
-0.0009544524457157918
-0.006742743414224808
-0.0011778344085341143
0.0007181539826100496
-0.00218172376822297
-0.0011541478504575428
-0.006949880263995938
-0.009578811869638843
-0.007981802643397541
-0.002267821415667722
-0.0016693357780204867
5.1921984357126836e-05
-0.003430924831075963
-0.0025392451278611317
-0.0020110487040868627
-0.01507765643073173
-0.00880997086091919
-0.004891741514756061
-0.00954215385052501
-0.009366952127099884
-0.010301706358072881
-0.0011520886032590904
-0.0016370649535096399
-0.010682797583060212
-0.010677589348992494
-0.003615836798140564
-0.010816633922302112
-0.004158307223515381
-0.001936647437357191
-0.006435762494624469
-0.0015066694884794897
-0.010074508869382038
-0.008731895717685411
-0.0011017254340831254
-0.010606563973797483
-0.010638952019465502
-0.0014929421595915025
-0.0011735193112052066
-0.0019056351441803408
-0.007126543450885857
-0.001864576178490882
-0.0012791608076327312
-0.0013440898943991174
0.0003702266655367911
-0.0012633192864392182
-0.004542523241131901
-0.003605185694220161
-0.0008698902491962961
-0.0012166844958416754
-0.0012716398715483693
-0.0012419789646581688
-0.0020113224029432108
0.0021269475364111483
-0.00016987149293351127
-0.0010073418044223696
-0.002076442128433512
-0.004596771067162619
-0.0009492986818022232
0.0011245925963733955
-0.0014207522169351762
-0.0007128127615332303
0.0006036746132712477
0.0005577755401183938
-0.002939209122300319
-0.0005637229740923049
-0.001399210443958564
-0.00015015792201766425
-0.0014456728291330919
-0.0005555503081805307
0.00034529316776381975
-0.0006055004220944953
-0.0015341075171909791
-0.0007020974998178616
-0.005793881264109418
-0.0008719879289517941
-0.00207266911541302
-0.0008414744736197095
-0.00015171273420284406
-0.0010383832553037598
-0.001660299600335759
-0.0010556339339449683
-0.0011371392992558362
-0.001238012218950485
-0.0018060311682642635
-0.0012253487480071881
-0.010268093860096203
-0.0015023812901290886
-0.002190258406669057
-0.0014350740456028942
0.001942239499597768
-0.002232131475841884
-0.0018820763999611314
-0.006028586028884441
-0.00044235010738010084
-0.0014415272667171366
-0.0019603926879903956
-0.003520743985697989
-0.0011026744361313427
-0.0021598656211626673
-0.003317806927368778
-0.010819889468629176
-0.008745845733473161
-0.0027899590529005666
-0.003140070613372317
-0.00895044672151883
-0.0012262106051676137
-0.01077403351527618
-0.002905534289694647
-0.0044343583283054456
0.0023727129965023836
-0.0057998071390235675
-0.0036285179722919947
-0.010879753140720564
0.0002709327993675821
-0.006953463942237037
-0.004349871469905795
-0.00800323603648292
-0.001402518651186512
-0.008840245602173797
-0.0009261419264715661
-0.009550554478822759
-0.0019815743645580455
-0.010304176990627427
-0.000941133781806437
0.0010987822603189044
-0.0016789459183012153
0.00026869415407483274
-0.0008365276685416916
-0.000880302224104449
-0.003007558805342735
-0.00014850859970754653
-0.002622513138743975
0.0015487997090704957
-0.0015249520749112315
-0.008516543685321024
-0.0014808021164520054
-0.012130504683389515
-0.004334969411864537
-0.0006493997072559519
-0.0018419848361906532
-0.009325628549711702
-0.0024150830060790463
-0.0016308858081912046
-0.001649029986586073
-0.011827214293971607
-0.00572694222648132
-0.0003941756831431836
-0.0030629938978675958
0.0036363134173410063
-0.001404545148718835
-0.0028457513486200526
-0.006820046530051584
-0.00781886781977763
-0.0020325879285810686
-0.007510616464469443
-0.0022086235822709123
0.00040078367542492176
-0.0006620149922349371
-0.0026862741637178316
-0.006914513793917953
-0.008734271641064049
-0.007945694512854313
-0.003829327225943044
-0.0012788870079623164
-4.4774841167204754e-05
-0.0039834149971313595
-0.002699593346095234
3.591062473305526e-05
-0.012877728739278789
-0.00876867525826057
-0.006129051782286296
-0.009494406081318784
-0.00813140993177594
-0.010248629737924382
-0.0006759380566223343
-0.0012603771252457253
-0.01039148236612464
-0.01094086207490992
-0.005020037208606757
-0.01076105803693046
-0.006429512718364201
0.0004266980508166956
-0.004109429522023743
-0.001131067196285729
-0.009455312767308146
-0.008749509082340779
-0.0005987502694088387
-0.01055828170571997
-0.009045636040052908
-0.0011357739538215578
-0.0006525745235412313
0.000547949376118795
-0.0067500674890175975
0.00043220707227485634
-0.0007569855240948556
-0.0009944628080242616
0.00032846806655445607
0.000614792158314308
-0.0035576666088817685
-0.00170189947065527
-0.0006222217393611228
-0.0008801539558877524
-0.0007239317769860972
0.0027651101421660145
-0.00021011374271094404
-0.0007066228084238448
-0.002303585849494669
-0.0032208500905622282
0.0010762668450893928
0.0012266452698636778
-0.0008882424828332658
-0.00043875457548770715
0.0029563796198904357
0.00021347448656923598
-0.002459567754750084
-0.0003095476482973025
-0.0007941536500472414
-0.0008224124192644407
-0.0008967443017980377
-0.0003218962817449757
0.0007286088850703596
-0.0015222512177703893
-0.0009906897686166275
-0.0004850086529638922
-0.005677837082908929
-0.00191619409460004
-0.001721514431171621
-0.0006419436726541444
-0.0002909017640703204
-0.002111271033374313
-0.0011359995166996715
-0.0008703469971852461
-0.0009258677380052497
-0.0022772488679152257
-0.0013172556303400879
-0.0010587204093553283
-0.008775240655028858
-0.0024759648971536563
-0.0016690019026162888
-0.0012870856244661028
0.0033007306604903937
-0.0031239422791104624
-0.0013800210350261844
-0.0068768710302261945
-0.006268962974275971
-0.0013114047333781353
-0.0014843604786216541
-0.004079150650490464
-0.0009365980446732383
-0.0020484711632051886
-0.0033357405260176186
-0.011081500082173623
-0.0076297557410293666
-0.0026945643047692723
-0.003165667133978206
-0.00896443559295743
-0.0006737832155491988
-0.010721715988099399
-0.0032018344860381192
-0.004368796506197295
0.0022312540112818095
-0.005756167971986344
-0.003832197632725388
-0.010819917616232133