# vtk DataFile Version 1.0
GRUMMP topologically 2D mesh
ASCII

DATASET UNSTRUCTURED_GRID
POINTS 4142 float
  0.9902132100051211  -0.0013897599745845   0.0000000000000000
  0.9878682672001325  -0.0017209544766007   0.0000000000000000
  0.9922830260938109  -0.0010965337451688   0.0000000000000000
  0.9852627687065505  -0.0020876945602550   0.0000000000000000
  0.9824126515147726  -0.0024873693035198   0.0000000000000000
  0.9941016532545700  -0.0008382294190312   0.0000000000000000
  0.9793229395886266  -0.0029189889321549   0.0000000000000000
  0.9759912936709813  -0.0033826574903297   0.0000000000000000
  0.9957253756688895  -0.0006072067599891   0.0000000000000000
  0.9724158418644283  -0.0038783672872607   0.0000000000000000
  0.9972114818934485  -0.0003956828894990   0.0000000000000000
  0.9685983419668763  -0.0044053177853816   0.0000000000000000
  0.9986172604849257  -0.0001958749290171   0.0000000000000000
  0.9645418982154840  -0.0049624143705746   0.0000000000000000
  0.9602493276520160  -0.0055486932126648   0.0000000000000000
  1.0000000000000000   0.0000000000000000   0.0000000000000000
  0.9557225436143375  -0.0061636003738353   0.0000000000000000
  0.9986172604763917   0.0001958749302285   0.0000000000000000
  0.0136778115501445  -0.0198442283865115   0.0000000000000000
  0.9509632892996972  -0.0068066585239019   0.0000000000000000
  0.0111799405480040  -0.0180409152078963   0.0000000000000000
  0.9972114818757430   0.0003956828920181   0.0000000000000000
  0.0164236219435115  -0.0216216850259729   0.0000000000000000
  0.9459737546847580  -0.0074771440326796   0.0000000000000000
  0.0194159763686392  -0.0233724637256901   0.0000000000000000
  0.0089312659290954  -0.0162123970812813   0.0000000000000000
  0.9957253756403164   0.0006072067640564   0.0000000000000000
  0.9353156997544615  -0.0088958032333210   0.0000000000000000
  0.0226532123065557  -0.0250954152174871   0.0000000000000000
  0.0261336316774566  -0.0267893559859237   0.0000000000000000
  0.0068429846519911  -0.0142695304151425   0.0000000000000000
  0.9237713702124288  -0.0104115615140689   0.0000000000000000
  0.0298554003449755  -0.0284531869488138   0.0000000000000000
  0.9941016532123735   0.0008382294250309   0.0000000000000000
  0.0050308200222286  -0.0123013782195995   0.0000000000000000
  0.0012596550434314  -0.0062543845982477   0.0000000000000000
  0.9113626015789812  -0.0120184565864932   0.0000000000000000
  0.0338165365583016  -0.0300859006297539   0.0000000000000000
  0.0005600587198625  -0.0041872521188657   0.0000000000000000
  0.0034956879705714  -0.0103096477045821   0.0000000000000000
  0.0380150486067802  -0.0316864834866382   0.0000000000000000
  0.0001400674572995  -0.0020989425108620   0.0000000000000000
  0.0424489169588349  -0.0332538061244847   0.0000000000000000
  0.8981160449036193  -0.0137076729882106   0.0000000000000000
  0.9922830260341767   0.0010965337536290   0.0000000000000000
  0.0022384105171692  -0.0082946477552229   0.0000000000000000
  0.0000000000000000  -0.0000000005380880   0.0000000000000000
  0.0471161050109934  -0.0347866680569130   0.0000000000000000
  0.8692172420003259  -0.0173025512123363   0.0000000000000000
  0.8840586048664243  -0.0154712341935952   0.0000000000000000
  0.8536242589802903  -0.0191927756559575   0.0000000000000000
  0.0520144653095357  -0.0362838744017245   0.0000000000000000
  0.9902132099234322   0.0013897599861408   0.0000000000000000
  0.0001400673054027   0.0020989413744649   0.0000000000000000
  0.0005600583994229   0.0041872509286527   0.0000000000000000
  0.0089312642537700   0.0162123956290166   0.0000000000000000
  0.0068429832427153   0.0142695290019493   0.0000000000000000
  0.0022384098100130   0.0082946464730838   0.0000000000000000
  0.0034956870455263   0.0103096463775504   0.0000000000000000
  0.0050308188630767   0.0123013768482443   0.0000000000000000
  0.0111799386902237   0.0180409137864515   0.0000000000000000
  0.8373107726191357  -0.0211334926288444   0.0000000000000000
  0.0624935355792051  -0.0391666954139108   0.0000000000000000
  0.9878682670932252   0.0017209544916756   0.0000000000000000
  0.0136778095139640   0.0198442269960848   0.0000000000000000
  0.8203090273240524  -0.0231167391866414   0.0000000000000000
  0.0738633143603066  -0.0418930499584099   0.0000000000000000
  0.8026551811301268  -0.0251343400368426   0.0000000000000000
  0.9852627685719384   0.0020876945791685   0.0000000000000000
  0.0861021386417074  -0.0444536409739349   0.0000000000000000
  0.7843840873894279  -0.0271778197795966   0.0000000000000000
  0.9824126513500548   0.0024873693265746   0.0000000000000000
  0.0991843265815398  -0.0468392532814141   0.0000000000000000
  0.0164236197329729   0.0216216836667636   0.0000000000000000
  0.7461418339277840  -0.0313078737465108   0.0000000000000000
  0.9793229393907722   0.0029189889597428   0.0000000000000000
  0.1130825286139299  -0.0490420520078216   0.0000000000000000
  0.7058944105034720  -0.0354399888107516   0.0000000000000000
  0.1277704618123611  -0.0510562827506626   0.0000000000000000
  0.1762568929815641  -0.0559042078350805   0.0000000000000000
  0.0194159739879911   0.0233724623981675   0.0000000000000000
  0.6639684116827792  -0.0395008026994765   0.0000000000000000
  0.1937838883744062  -0.0571083155282771   0.0000000000000000
  0.9759912934368556   0.0033826575228533   0.0000000000000000
  0.2119350336566717  -0.0581032139582273   0.0000000000000000
  0.1432165586985055  -0.0528747491799113   0.0000000000000000
  0.1593891568184451  -0.0544918670991958   0.0000000000000000
  0.0226532097601106   0.0250954139222151   0.0000000000000000
  0.6207078411914361  -0.0434191082996254   0.0000000000000000
  0.5764634620046084  -0.0471137377839725   0.0000000000000000
  0.9724158415910057   0.0038783673250912   0.0000000000000000
  0.2306739249637577  -0.0588890260835713   0.0000000000000000
  0.0261336289695199   0.0267893547234291   0.0000000000000000
  0.5315950381341085  -0.0505057454921963   0.0000000000000000
  0.4864703588817339  -0.0535094604401647   0.0000000000000000
  0.4414549182767121  -0.0560390634426787   0.0000000000000000
  0.9685983416513994   0.0044053178288238   0.0000000000000000
  0.2697570606452168  -0.0598365819607799   0.0000000000000000
  0.3969170552729402  -0.0580119076690758   0.0000000000000000
  0.0298553974799863   0.0284531857194991   0.0000000000000000
  0.9645418978552561   0.0049624144199126   0.0000000000000000
  0.3107174127482247  -0.0599745523566999   0.0000000000000000
  0.3532197168655907  -0.0593474025151865   0.0000000000000000
  0.9602493272443249   0.0055486932681955   0.0000000000000000
  0.0338165335406938   0.0300858994339835   0.0000000000000000
  0.0380150454409591   0.0316864823247920   0.0000000000000000
  0.9557225431564565   0.0061636004358678   0.0000000000000000
  0.0424489136491938   0.0332538049970267   0.0000000000000000
  0.0471161015618897   0.0347866669642923   0.0000000000000000
  0.9509632887889385   0.0068066585927330   0.0000000000000000
  0.9459737541185675   0.0074771441085412   0.0000000000000000
  0.0520144617255517   0.0362838733443521   0.0000000000000000
  0.9353156990700551   0.0088958033238094   0.0000000000000000
  0.0624935317401540   0.0391666944281135   0.0000000000000000
  0.0738633102849253   0.0418930490455120   0.0000000000000000
  0.9237713694002159   0.0104115616199952   0.0000000000000000
  0.0861021343485112   0.0444536401350998   0.0000000000000000
  0.9113626006299211   0.0120184567085017   0.0000000000000000
  0.0991843220904188   0.0468392525175462   0.0000000000000000
  0.8981160438094651   0.0137076731266115   0.0000000000000000
  0.1130825239435962   0.0490420513187447   0.0000000000000000
  0.8840586036192291   0.0154712343488011   0.0000000000000000
  0.1277704569818227   0.0510562821360933   0.0000000000000000
  0.8692172405930260   0.0173025513845012   0.0000000000000000
  0.1432165537277111   0.0528747486397878   0.0000000000000000
  0.8536242574066383   0.0191927758449732   0.0000000000000000
  0.1593891517258480   0.0544918666322352   0.0000000000000000
  0.8373107708732270   0.0211334928345504   0.0000000000000000
  0.1762568877862003   0.0559042074398506   0.0000000000000000
  0.8203090254010921   0.0231167394087162   0.0000000000000000
  0.1937838830953411   0.0571083152030304   0.0000000000000000
  0.2119350283118140   0.0581032137003017   0.0000000000000000
  0.8026551790260408   0.0251343402747870   0.0000000000000000
  0.2306739195716207   0.0588890258904683   0.0000000000000000
  0.7843840851007032   0.0271778200327233   0.0000000000000000
  0.2697570552113356   0.0598365818878674   0.0000000000000000
  0.7461418312636445   0.0313078740273454   0.0000000000000000
  0.3107174073396524   0.0599745523895525   0.0000000000000000
  0.3532197115457904   0.0593474026374948   0.0000000000000000
  0.7058944074605978   0.0354399891145804   0.0000000000000000
  0.6639684082655058   0.0395008030201497   0.0000000000000000
  0.3969170500997217   0.0580119078642495   0.0000000000000000
  0.6207078374111498   0.0434191086291270   0.0000000000000000
  0.5764634578798972   0.0471137381129498   0.0000000000000000
  0.5315950336908907   0.0505057458089039   0.0000000000000000
  0.4864703541532008   0.0535094607315534   0.0000000000000000
  0.4414549133024901   0.0560390636939180   0.0000000000000000
  0.9901595609719056  -0.0023783411927147   0.0000000000000000
  0.0326649145266362  -0.0334200843455863   0.0000000000000000
  0.9878329678703356  -0.0027145673674890   0.0000000000000000
  0.0733998606732272  -0.0440344159407381   0.0000000000000000
  0.9922372924577029  -0.0020726951087579   0.0000000000000000
  0.8846838814295012  -0.0208009306521702   0.0000000000000000
  0.9852539181750185  -0.0030832573491977   0.0000000000000000
  0.8205556230767344  -0.0253024477924150   0.0000000000000000
  0.9824277530968584  -0.0034836508822686   0.0000000000000000
 -0.0022154120548041  -0.0049277430541563   0.0000000000000000
[...]
POINT_DATA 4142
SCALARS continuity float
LOOKUP_TABLE default
0.006722733093574086
0.006696736085398473
0.00704250065427539
0.006604770311378627
0.0065511030233011865
0.006071834121920977
0.006517324735721813
0.006505709849530077
0.008507699632674151
0.006506799522085151
0.00581430475268352
0.0065033655239415036
-0.05376429126138218
0.006510980364550356
0.0065123318112278354
-0.001568147776513927
0.006514532397461799
-0.04931418289444549
0.009755283104813993
0.006505561892552425
0.010083424664590921
0.005928127875555417
0.009245106785053867
0.006480927202444329
0.00865351223536569
0.010842319928922392
0.008912344787073062
0.006420539851909621
0.008028530777485797
0.007373633385851552
0.010748522590068865
0.006332961798881724
0.006698391512341966
0.006358843299828618
0.01096742689309124
0.01050447430703248
0.00622476865985483
0.006011335745419142
0.010171231883330415
0.010950886488692413
0.005333217878561031
0.009996690680521964
0.004674309244663415
0.006099936741742397
0.007190775338418765
0.010786349511481342
0.010048520606523033
0.00475505611559576
0.00579872282361726
0.005944060406036597
0.005635099096533961
0.0024169946218908205
0.006844914762527428
0.01039417780220469
0.006643617144527758
0.011008941573581305
0.010984945529250167
0.014066486076309158
0.008627657150656665
0.01061853980233285
0.010255563684797223
0.005464569077047108
0.0030874480594899963
0.006781430930622649
0.009899008955515824
0.005278457008503857
0.0012373092907395384
0.0050044623847620906
0.006668360735983585
0.0005061761364198434
0.004822730150734229
0.006602733495289146
-0.00012755875386045632
0.009364967884516321
0.004267168756949735
0.006557392049864267
-0.000714397482722734
0.003867649572927511
-0.0012459534064516388
-0.0024494769405588733
0.0087731017100852
0.0033653887460264333
-0.0026126605418419365
0.006534478643098572
-0.002222672390693818
-0.0017134646365045115
-0.002110250949276973
0.008151101804607177
0.0027484877412523967
0.002034806516510906
0.006523603726773223
-0.0030201214092795766
0.007504071590550254
0.0012252416411325994
0.0003042090501265592
-0.0007149997121050274
0.0065242080501507135
-0.0023475796432932024
-0.0017314664791437302
0.006835200465493725
0.006522328247384517
-0.0030041599234324895
-0.0025268599191415383
0.0065245769111978895
0.006166034669274966
0.0055025967241860785
0.006512706670306349
0.004857459139755622
0.004949329161067402
0.006490002879616459
0.00648030672765735
0.0026112357658576446
0.006411371253396547
0.0032724922583637654
0.001412706602312506
0.006315769451864245
0.0006735841418351912
0.006208674406116709
3.0597330408713144e-05
0.006070128499035659
-0.0005690739305685434
0.005924135081181054
-0.0011163570708781912
0.005763885860078781
-0.0016007207027721733
0.005600383666015248
-0.0020166184808945746
0.005420863610321602
-0.0023731303435017208
0.0052348961548779206
-0.00255240414670179
-0.0021767025383971623
0.004980259112663402
-0.002993584280121881
0.004737458581551546
-0.0023419316801817835
0.004268916763687385
-0.0030151361150924207
-0.0025474875401370104
0.0038153450406923748
0.0033443503477002183
-0.0017530175856686036
0.002735707214939828
0.0020284703943331713
0.0012218135164380178
0.00029593400386542326
-0.0007305259412583741
0.006590135934350002
0.004929962331137877
0.006690733576091118
0.002023962137296068
0.007132352073580371
0.005918965522786849
0.0066032033317569815
0.005290378434180917
0.0065610949793314995
0.004657053898891699
0.004874882522337666
0.009186516316655798
0.006530138729288936
0.003560852956673448
0.0065203626903006405
0.006791629043353124
0.010513097096451918
0.004474121240017947
0.006522323775002011
0.003908949679630295
-0.002745928202427671
0.005774092676385155
0.006519565368032385
0.005475988241090906
0.010207555320801087
0.004712174996962641
0.00652811973800141
0.008922884711079795
0.006530001396914073
0.007001326295301798
-0.021337639551137908
-0.021008378716064098
-0.007063858781766303
-0.00063840269543141
0.0024190686515676717
-0.0006311984504257371
-0.007227275189739862
0.006532376510593802
0.0071315399432454706
0.009426188727519574
0.004627956580109995
0.011928372329032832
0.005595506908798041
0.006524833233988062
0.0013782793624302206
0.012194544539467323
0.0077656926413583825
-0.002239181809142431
0.004368851588890654
0.01142837040533103
0.00814220177746398
0.00649565394114685
0.003947658557683177
0.010779440841928061
0.008661437665202588
0.01247113925003692
0.0060997204677902
0.01064381960191679
0.006056900557402167
0.006438428415599139
0.003797771140271012
0.010053584467287961
0.006235310143457192
0.009273992743284748
0.007217031600180595
0.012218139158356655
0.00682208128834644
0.006349579445726333
0.003527521270639853
0.008458578835032296
0.003842579966396597
0.005183254553494212
0.004585701059127003
0.011817199561142638
0.005646308859565318
0.009584454645243743
0.003646852405377841
0.006241590295842414
0.005955630015943134
0.007635795595387122
0.004640410352493876
0.008912394103566477
0.0058101756043290554
0.01116094963736026
0.003758264994528058
0.006812137802944086
0.005474929744772657
0.008590329186176445
0.0044945151907456555
0.005975271489310886
0.006349892385433483
0.006116532857069341
0.007177427976958962
0.007255417956665733
0.006989057237804806
0.01037293989581906
0.0057982914233398065
0.008524080141927702
0.007445869428606989
0.005639772062436162
0.0035002682486166307
0.005814760373417276
0.0061115105409629686
0.005960081319372693
0.0059431068681092495
0.005651375212171652
0.005649204812008059
0.003938750794228334
0.006074890923920078
0.006717088418442877
0.0063672362091914065
0.008417320175853093
0.005634397227026995
0.00812206054469712
0.006386291934878346
0.012569663270087444
0.003960192252430296
0.012304695219372129
0.007365280580339293
0.011395735103035093
0.0031441294056986694
0.00912928073785594
0.006477943735383911
0.01121225616033422
0.0007143986854959011
0.01232304308057869
0.007059898439725788
0.005481386820904772
0.006753159885871913
0.003919866874587974
0.006236394913288044
0.006773442600278594
-0.0037750286853068657
0.012038857504306291
0.0066939012202539856
0.005295323069553323
0.004587314945104975
0.0020260372560786527
0.007792251414396202
0.005026614192628667
0.003767478716585365
0.006667178940371402
0.006487705181614515
0.0011605119299585242
0.004365885913411503
0.004834054787838741
0.007669061225040673
0.0066128841136547925
0.006856911656265399
0.00041930968967623087
0.006345271282017316
0.01151724036170874
0.004152021746435482
0.004288117524324541
0.008199764802224532
0.006570384776788587
0.00048785170822998565
-0.000253558641902502
0.008214914785111192
0.0038880003272079144
0.004148829483296271
-0.0008553564822075837
0.00866052796996683
-0.002205240987858073
0.005734134635063087
0.010873638300836319
0.006432944621343115
0.003387516721115758
0.005340198661534818
-0.0024055854956537104
0.011545451086252205
0.00654911929566386
0.003392918387802541
-0.0020726046851024314
0.00867701484353098
-0.0013807819087898268
0.003417489187699988
-0.0018273685242133808
0.008979814520869945
0.010160074933582298
0.0036834446431533935
0.0027739818930637337
0.006491011709239107
0.0020631581598987343
0.00392192145676001
0.006539439540569831
0.009150952966816728
-0.0028222135984780758
0.003802915073199225
0.009386851735797714
0.0031284281397260067
0.0012587368495174049
0.004128823018177449
0.00034431559125511457
0.008872250318051271
-0.0006658563311499638
0.0058770438825091345
0.006540845248475502
0.006520264899323462
-0.0022314375013694483
0.005464439422266069
-0.0016710437626705115
0.009125106658269646
0.008587401092095265
0.00023377527182049575
0.006539649309222121
0.04185123470576319
-0.0029091221487148487
0.00341244088665203
-0.002451802852468068
0.006529558326082654
0.00654238344446845
0.005965525892570827
0.007780424648902605
0.006529310404387635
0.006973935410738121
0.006738550284160584
0.006530871074140543
0.006529237709167604
0.006153692716428943
0.006200216965378532
0.005829511875045215
0.03991102823327786
0.006509361717178237
0.0043017339897972766
0.006495993024121719
0.006522504959169028
0.004131476437528211
0.005572152262647474
0.006429294398250675
0.002998177550998086
0.004104869625357734
0.005278975810577077
0.0022025061526936133
0.006527256748194671
0.00633283947774152
0.003775245219972165
0.001329770735266316
0.011124392098694046
0.00622575587371225
0.0017738547291087097
0.0005798254552999914
0.006526550040808806
0.006086654285816764
0.005022811424740314
-0.00010592076960512566
0.0065357566330791345
0.005940494710180385
0.005009146587327057
-0.0007228765849956816
0.006260342971810614
0.005779872489493153
0.0029864846147486072
-0.0012663205574741248
0.00656547365406138
0.005616825641045408
0.006638848927903013
-0.0017311895998822966
0.006609562653652494
0.0054374201447356255
-0.00389350290595538
-0.002127248034200965
0.0073092255594325375
0.005252199988917758
0.0010858691739769417
-0.002343922878135304
0.0067141322193464215
-0.002025246267692227
0.006841825918573044
0.005002804421493088
0.006709240555487806
-0.0027934881108214924
0.004819335342174212
0.004748536921218301
-0.002290338632825551
-0.002224533306597354
-0.007318335852442036
0.004289830057791935
0.0038902689308789396
-0.0029184954139841687
0.006596563195580198
-0.0024709985684824025
0.002068740134558449
0.003836139213202994
-1.369850648081047e-06
0.003366977087802042
0.0036743584367434903
-0.0016919990466830565
0.0004681850665913302
0.0027611184356089156
-0.0030817816803707806
0.002057946506655913
0.006718846819382204
0.0012561389262513137
0.0002442768772738702
0.00033708050119222413
0.004507827015863874
-0.0006804082100851039
-0.0028222929747065144
0.00502025070820819
0.006032705081466235
0.006669414284022833
0.006224806768475736
0.0011906404961265805
0.005611365126751242
0.004829570592585009
0.004649439031336584
0.0066143398168423215
0.0038521617969821897
0.0004717333197414428
0.004327409203368255
0.009203407768806071
0.0007182479755189308
0.004283166415302974
0.0064928034467166915
0.006573558039924192
-0.004461706468520684
-0.00018760980365259606
0.005028153603414443
0.003884401457267521
0.006765268200099885
-0.0007863771251910774
0.006333667303593622
-0.0021477897907938555
-0.00756678648109558
0.009042172006771492
0.00415619971309952
0.0033847973936746824
0.003827492831458538
-0.0023571853420077367
0.005009238452147854
0.006553497545004414
0.0034724374361153006
-0.0020178792776027504
0.004887327562511381
-0.0013134547765088083
0.003612540503271004
-0.0017637799553130936
0.006421256405594118
0.008737522981933536
0.0066780119125247105
0.00277144642047263
0.00936188364712986
0.002062617647198983
0.0019225387285786415
0.006543220993063042
0.004135000882365753
-0.0027792833282839218
-0.0045582706297594925
0.008302584463650129
0.004682283111389733
0.0012601160759524372
0.004800496965634266
0.00034729611055991114
0.00647968346899327
-0.0006614024101652744
0.002485652465727168
0.006543010890995806
0.004463518326475851
-0.0021990248216056598
0.005672465507482396
-0.0016655481868392554
0.004175666997530809
0.007773985306786399
0.004241830595531823
0.006539684252550021
0.004071497976513979
-0.0028953070032081544
0.0033848947338291865
-0.002443934905018244
0.006509717575885126
0.006540401175959219
0.0028604698795411513
0.0071810496512472385
0.0042466530049152735
0.0065271521130171005
0.0036563998775738
0.006528109586410516
0.014695342233491093
0.005810087395651453
0.002784408364469944
0.0056481255072154644
0.006520180583131559
0.006504588859928255
0.0035339853107981918
0.00649129345140407
0.006520658555720239
0.004022643814957937
0.0012529459184249317
0.006423596894937292
0.0065222795891198915
0.004083009027283301
0.005812520875609128
0.0021923846978017824
0.014794820989704626
0.0063282358877116045
0.005441812482145632
0.001354592625118321
0.00651631425499007
0.006220641624897988
-0.004425135881447298
0.0006282974363844288
0.00395111676889251
0.006081323027465148
0.0014599557924219657
-4.24705624138171e-05
0.0065224255623821704
0.0059358955836296455
0.005859704951869782
-0.0006551992700675888
0.009233343526243967
0.005774945881421224
0.00671902978906472
-0.0011994230792832395
0.006519935664363059
0.005611936139790239
0.0061569870600892244
-0.001667890528522462
0.0065271609440293015
0.005432462770001308
0.0006956069705812739
-0.0020694513341891255
0.006305010777798677
0.005246713974442841
0.005513965569455943
-0.002294982912087542
0.0065514542687971555
-0.0019702200475278727
0.005257681570765782
0.004996332371356089
0.006585276633632061
-0.002750627673633723
0.003567670284516245
0.004744011286393557
0.007118115305511904
-0.0021916887266865874
0.00047543808573986937
0.004284863686095364
0.006670001099546516
-0.0029054019384953255
-0.0018719163366516963
-0.002463705202648903
0.006655721029036239
0.0038328728756311663
0.004989162489009837
0.003363957622847491
-0.0001926232768703735
-0.0016862094918115712
0.0030737333570674576
0.002759070004128515
-0.0006707926090524143
0.0020571277046643245
0.006616613006710504
0.0012569991959665208
-0.0001763457111816045
0.0003399513558190637
-0.008183144524757118
-0.0006761466942752012
-0.0021779873820368502
0.006308972803391075
0.004272897596118564
-0.007436400767321809
0.00656187213478595
0.0024152495036786643
-0.00012786941343752677
0.0035927303096083604
0.0038762378984578062
-0.00016954523425024163
-0.0006918354805046501
0.0035475148491874568
-0.0020394752963938285
-0.00022429293611195286
0.004737886627050567
0.0034349353394018123
0.003378337796576774
0.006396521381865717
-0.002257375065803669
0.0065801190342890965
0.00654493580468018
0.009153701717453127
-0.001917472105450815
0.0020058390595441146
-0.0012036330568972794
0.0018254997171068172
-0.001650499966246437
-0.006521436919012244
0.004942315216035664
-0.00013294086926585213
0.002768315092882553
0.0026220619988123863
0.002062624402673619
0.0001521063734366078
0.006535539895383485
0.005576342364563206
-0.002698240466207327
0.006367936703832722
0.005075106544186003
0.0039272383700309395
0.001263365464526237
0.001135500526888464
0.0003545296055799036
0.0037593488426571073
-0.0006499853982003227
0.0064874527359020185
0.006535432276447812
0.0031339970675584796
-0.0021376945327542993
0.0005868172788104062
-0.0016506006429737818
0.0032964089821825473
0.00510277306411331
0.018135177622306486
0.006531433736129682
0.0029654684151269044
-0.0028615746883950905
0.006498940905668999
-0.0024236656991860443
0.003621228046382839
0.006531981198077756
0.006500599474138219
0.0050212281519739855
0.001163137220290021
0.004824335781213878
0.006503793978291597
0.006517900747016899
0.005710783308667176
0.004497587837294189
0.01745885669594228
0.004637614010225242
0.0054050747656777315
0.006494318673177059
0.006498003626356709
0.006479414824008081
0.0068995768569622045
0.0032971203351656745
-0.005513868868040914
0.006411029097621673
0.00620959181861488
0.0035647254967020605
-0.002884609529531245
0.0019254587103763243
0.006505635112213442
0.0063154765613799265
0.005673820113016971
0.0012363475855316811
0.00891429034752179
0.006208210688746251
0.006661798144632436
0.0006147575222639225
0.006503089966348357
0.006068718721251844
0.006087254591669744
1.0751684774930064e-05
0.006508482173892859
0.005923071895830449
0.00022355662362956034
-0.0005652378474473851
0.00669752450745362
0.005762421871732923
0.005423415601610987
-0.0010919435493697987
0.006534246854266128
0.005599593654060785
0.005223110841775532
-0.0015554657463128256
0.006571852513739707
0.00541986453159777
0.0037023487213299336
-0.001961581859127109
0.007085868762415414
0.005235120037426327
-0.0029816688349842886
-0.0021954893162207056
0.006661252153872635
-0.0018696730585693424
0.005150161855446712
0.004985302605252143
0.0066873313069493335
-0.0026698621485764383
0.004956846795915081
0.00473385995663702
0.005492740626789524
-0.0021314046227801525
0.003636905546367577
0.004274486585980412
0.004288370160105844
-0.002872412599749038
0.006573840542957593
-0.002444127942308367
0.005359783209578625
0.0038249837772983764
-0.008991223849617345
0.0033581435972617176
0.0047016802608737624
-0.0016719003640854584
-0.002420684995886333
0.00275559524265587
0.0049010339839672444
0.002057207106802924
0.006863559410121442
0.0012604785774643955
0.006454887210520695
0.0003475406298779441
0.004771142366207123
-0.0006649552618477897
0.006455348152186981
-0.006253007694129841
0.006575069784103147
-0.004077183516442084
-3.503405417699659e-05
0.006662858996107263
0.00024122696669518255
0.0062648325459628545
0.0042551518559977835
-0.0046529644208958085
0.006539959740616483
0.0025572679115724163
-0.0003893783139097989
0.0036905244958164523
0.003862344408537303
-0.0035116353430624317
-0.0007919174233141736
0.003675991911447457
-0.001941707962926454
-0.002765290173119824
-3.682834731746059e-05
0.0036023134819198146
0.0033688566790636494
0.006351144221238198
-0.002142832312353005
0.0008468346856721801
0.006524412908533073
0.008042363804633922
-0.0017878986149416542
0.002978748973268413
-0.001201065018259343
0.0019064710990119261
-0.001586338539905752
-0.0048555562029971395
-0.00014332691855602661
-0.0018926916183937123
0.0027643754651929505
0.003378751364581626
0.0020646273389579783
-0.0009000762207478158
0.006514986265466951
0.005401338386663501
-0.002582154634925566
0.006720269508394085
-9.233206414692507e-05
0.003987667301364605
0.0012721808698773764
0.001036915501014006
0.00037077970252502883
0.004037943632178007
-0.0006269354894874057
0.006445437846763462
0.006515933575669832
0.003636050400918742
-0.002043970030381971
8.644213038639153e-05
-0.0016209262836149995
0.0035695900011451557
7.912514364796738e-05
0.010219956705262602
0.006510648959391303
0.0035626321897253527
-0.002802674929459273
0.006457789846484991
-0.0023846490113532642
0.003741855223268904
0.006510403279098838
0.006460224094919622
0.0003233171300695324
0.002350991440930919
0.0005898423271923788
0.006465450699231906
0.006494678641077037
0.005528944484950396
0.0008277285926674453
0.010063223834096907
0.0015004088328049552
0.0053507137803478644
0.006469482163102206
0.0064605345562938656
0.0008473685714688081
-0.0034912360989364758
0.006385541575669483
0.006610899226418085
0.0015858547715882352
-0.007968520719782355
0.0006022600834998997
0.006471174485545096
0.006289751482811894
0.0010989595727881525
0.00037175098473024625
0.00792164682582196
0.006183251271851869
0.0066059167520091805
9.19886517787096e-05
0.0064681208759324775
0.006043440745290697
0.005977246672675842
-0.00026695660884334764
0.006473029262662259
0.005898205269105291
0.0015343833444112667
-0.0006773981233075586
0.0067942864411272615
0.0057380391738193984
0.005253848662428251
-0.0010975621186196992
0.006499368285362287
0.0055755085585641375
0.005173004066346608
-0.0014962511643252794
0.006537769722752044
0.005397226312377722
0.0038458309998425097
-0.0018672058468830355
0.0069382673905608845
0.005213178962188946
-0.008049049699820373
-0.0020829169274718604
0.006613596180215915
-0.0017424826447598521
0.0038559867296698302
0.004964623749903906
0.006661654879970811
-0.002554584151444139
0.004910142815362655
0.004714771534036557
0.004358930890152387
-0.002038837429868426
0.0040523813155613035
0.0042571057721938746
0.0037496013534719236
-0.002814900540831109
0.00652650132566088
-0.002406406651606825
0.004328174090776142
0.003811464949631032
-0.0064775769547931366
0.003349054691079477
0.004706458126224258
-0.001643482549045019
-0.007135583369213426
0.0027520328328852826
0.004766329506841336
0.002059384433436069
0.0067985089561728995
0.0012694196760548952
0.00640932791302246
0.0003633303904448262
0.00472983730749717
-0.000642898414529944
0.0064109809853319325
-0.0032902330502139086
0.006537310296371666
-0.004372987431235811
-0.002004918986926585
0.006600563082818468
-0.0007745925432053929
0.006192891393965676
0.004229173026911607
0.003524154055413293
0.006502235968121112
0.0033328060945329255
-0.0017863660350739092
0.0038131695847738057
0.003843837882476704
-0.003164127130889871
-0.001742098683841117
0.0036719528993605062
-0.0021456955507578616
-0.0019333056792865616
-0.0017457892819462589
0.003775361141609516
0.003358341820977157
0.006277870179044995