# vtk DataFile Version 1.0
GRUMMP topologically 2D mesh
ASCII

DATASET UNSTRUCTURED_GRID
POINTS 4142 float
  0.9902132100051211  -0.0013897599745845   0.0000000000000000
  0.9878682672001325  -0.0017209544766007   0.0000000000000000
  0.9922830260938109  -0.0010965337451688   0.0000000000000000
  0.9852627687065505  -0.0020876945602550   0.0000000000000000
  0.9824126515147726  -0.0024873693035198   0.0000000000000000
  0.9941016532545700  -0.0008382294190312   0.0000000000000000
  0.9793229395886266  -0.0029189889321549   0.0000000000000000
  0.9759912936709813  -0.0033826574903297   0.0000000000000000
  0.9957253756688895  -0.0006072067599891   0.0000000000000000
  0.9724158418644283  -0.0038783672872607   0.0000000000000000
  0.9972114818934485  -0.0003956828894990   0.0000000000000000
  0.9685983419668763  -0.0044053177853816   0.0000000000000000
  0.9986172604849257  -0.0001958749290171   0.0000000000000000
  0.9645418982154840  -0.0049624143705746   0.0000000000000000
  0.9602493276520160  -0.0055486932126648   0.0000000000000000
  1.0000000000000000   0.0000000000000000   0.0000000000000000
  0.9557225436143375  -0.0061636003738353   0.0000000000000000
  0.9986172604763917   0.0001958749302285   0.0000000000000000
  0.0136778115501445  -0.0198442283865115   0.0000000000000000
  0.9509632892996972  -0.0068066585239019   0.0000000000000000
  0.0111799405480040  -0.0180409152078963   0.0000000000000000
  0.9972114818757430   0.0003956828920181   0.0000000000000000
  0.0164236219435115  -0.0216216850259729   0.0000000000000000
  0.9459737546847580  -0.0074771440326796   0.0000000000000000
  0.0194159763686392  -0.0233724637256901   0.0000000000000000
  0.0089312659290954  -0.0162123970812813   0.0000000000000000
  0.9957253756403164   0.0006072067640564   0.0000000000000000
  0.9353156997544615  -0.0088958032333210   0.0000000000000000
  0.0226532123065557  -0.0250954152174871   0.0000000000000000
  0.0261336316774566  -0.0267893559859237   0.0000000000000000
  0.0068429846519911  -0.0142695304151425   0.0000000000000000
  0.9237713702124288  -0.0104115615140689   0.0000000000000000
  0.0298554003449755  -0.0284531869488138   0.0000000000000000
  0.9941016532123735   0.0008382294250309   0.0000000000000000
  0.0050308200222286  -0.0123013782195995   0.0000000000000000
  0.0012596550434314  -0.0062543845982477   0.0000000000000000
  0.9113626015789812  -0.0120184565864932   0.0000000000000000
  0.0338165365583016  -0.0300859006297539   0.0000000000000000
  0.0005600587198625  -0.0041872521188657   0.0000000000000000
  0.0034956879705714  -0.0103096477045821   0.0000000000000000
  0.0380150486067802  -0.0316864834866382   0.0000000000000000
  0.0001400674572995  -0.0020989425108620   0.0000000000000000
  0.0424489169588349  -0.0332538061244847   0.0000000000000000
  0.8981160449036193  -0.0137076729882106   0.0000000000000000
  0.9922830260341767   0.0010965337536290   0.0000000000000000
  0.0022384105171692  -0.0082946477552229   0.0000000000000000
  0.0000000000000000  -0.0000000005380880   0.0000000000000000
  0.0471161050109934  -0.0347866680569130   0.0000000000000000
  0.8692172420003259  -0.0173025512123363   0.0000000000000000
  0.8840586048664243  -0.0154712341935952   0.0000000000000000
  0.8536242589802903  -0.0191927756559575   0.0000000000000000
  0.0520144653095357  -0.0362838744017245   0.0000000000000000
  0.9902132099234322   0.0013897599861408   0.0000000000000000
  0.0001400673054027   0.0020989413744649   0.0000000000000000
  0.0005600583994229   0.0041872509286527   0.0000000000000000
  0.0089312642537700   0.0162123956290166   0.0000000000000000
  0.0068429832427153   0.0142695290019493   0.0000000000000000
  0.0022384098100130   0.0082946464730838   0.0000000000000000
  0.0034956870455263   0.0103096463775504   0.0000000000000000
  0.0050308188630767   0.0123013768482443   0.0000000000000000
  0.0111799386902237   0.0180409137864515   0.0000000000000000
  0.8373107726191357  -0.0211334926288444   0.0000000000000000
  0.0624935355792051  -0.0391666954139108   0.0000000000000000
  0.9878682670932252   0.0017209544916756   0.0000000000000000
  0.0136778095139640   0.0198442269960848   0.0000000000000000
  0.8203090273240524  -0.0231167391866414   0.0000000000000000
  0.0738633143603066  -0.0418930499584099   0.0000000000000000
  0.8026551811301268  -0.0251343400368426   0.0000000000000000
  0.9852627685719384   0.0020876945791685   0.0000000000000000
  0.0861021386417074  -0.0444536409739349   0.0000000000000000
  0.7843840873894279  -0.0271778197795966   0.0000000000000000
  0.9824126513500548   0.0024873693265746   0.0000000000000000
  0.0991843265815398  -0.0468392532814141   0.0000000000000000
  0.0164236197329729   0.0216216836667636   0.0000000000000000
  0.7461418339277840  -0.0313078737465108   0.0000000000000000
  0.9793229393907722   0.0029189889597428   0.0000000000000000
  0.1130825286139299  -0.0490420520078216   0.0000000000000000
  0.7058944105034720  -0.0354399888107516   0.0000000000000000
  0.1277704618123611  -0.0510562827506626   0.0000000000000000
  0.1762568929815641  -0.0559042078350805   0.0000000000000000
  0.0194159739879911   0.0233724623981675   0.0000000000000000
  0.6639684116827792  -0.0395008026994765   0.0000000000000000
  0.1937838883744062  -0.0571083155282771   0.0000000000000000
  0.9759912934368556   0.0033826575228533   0.0000000000000000
  0.2119350336566717  -0.0581032139582273   0.0000000000000000
  0.1432165586985055  -0.0528747491799113   0.0000000000000000
  0.1593891568184451  -0.0544918670991958   0.0000000000000000
  0.0226532097601106   0.0250954139222151   0.0000000000000000
  0.6207078411914361  -0.0434191082996254   0.0000000000000000
  0.5764634620046084  -0.0471137377839725   0.0000000000000000
  0.9724158415910057   0.0038783673250912   0.0000000000000000
  0.2306739249637577  -0.0588890260835713   0.0000000000000000
  0.0261336289695199   0.0267893547234291   0.0000000000000000
  0.5315950381341085  -0.0505057454921963   0.0000000000000000
  0.4864703588817339  -0.0535094604401647   0.0000000000000000
  0.4414549182767121  -0.0560390634426787   0.0000000000000000
  0.9685983416513994   0.0044053178288238   0.0000000000000000
  0.2697570606452168  -0.0598365819607799   0.0000000000000000
  0.3969170552729402  -0.0580119076690758   0.0000000000000000
  0.0298553974799863   0.0284531857194991   0.0000000000000000
  0.9645418978552561   0.0049624144199126   0.0000000000000000
  0.3107174127482247  -0.0599745523566999   0.0000000000000000
  0.3532197168655907  -0.0593474025151865   0.0000000000000000
  0.9602493272443249   0.0055486932681955   0.0000000000000000
  0.0338165335406938   0.0300858994339835   0.0000000000000000
  0.0380150454409591   0.0316864823247920   0.0000000000000000
  0.9557225431564565   0.0061636004358678   0.0000000000000000
  0.0424489136491938   0.0332538049970267   0.0000000000000000
  0.0471161015618897   0.0347866669642923   0.0000000000000000
  0.9509632887889385   0.0068066585927330   0.0000000000000000
  0.9459737541185675   0.0074771441085412   0.0000000000000000
  0.0520144617255517   0.0362838733443521   0.0000000000000000
  0.9353156990700551   0.0088958033238094   0.0000000000000000
  0.0624935317401540   0.0391666944281135   0.0000000000000000
  0.0738633102849253   0.0418930490455120   0.0000000000000000
  0.9237713694002159   0.0104115616199952   0.0000000000000000
  0.0861021343485112   0.0444536401350998   0.0000000000000000
  0.9113626006299211   0.0120184567085017   0.0000000000000000
  0.0991843220904188   0.0468392525175462   0.0000000000000000
  0.8981160438094651   0.0137076731266115   0.0000000000000000
  0.1130825239435962   0.0490420513187447   0.0000000000000000
  0.8840586036192291   0.0154712343488011   0.0000000000000000
  0.1277704569818227   0.0510562821360933   0.0000000000000000
  0.8692172405930260   0.0173025513845012   0.0000000000000000
  0.1432165537277111   0.0528747486397878   0.0000000000000000
  0.8536242574066383   0.0191927758449732   0.0000000000000000
  0.1593891517258480   0.0544918666322352   0.0000000000000000
  0.8373107708732270   0.0211334928345504   0.0000000000000000
  0.1762568877862003   0.0559042074398506   0.0000000000000000
  0.8203090254010921   0.0231167394087162   0.0000000000000000
  0.1937838830953411   0.0571083152030304   0.0000000000000000
  0.2119350283118140   0.0581032137003017   0.0000000000000000
  0.8026551790260408   0.0251343402747870   0.0000000000000000
  0.2306739195716207   0.0588890258904683   0.0000000000000000
  0.7843840851007032   0.0271778200327233   0.0000000000000000
  0.2697570552113356   0.0598365818878674   0.0000000000000000
  0.7461418312636445   0.0313078740273454   0.0000000000000000
  0.3107174073396524   0.0599745523895525   0.0000000000000000
  0.3532197115457904   0.0593474026374948   0.0000000000000000
  0.7058944074605978   0.0354399891145804   0.0000000000000000
  0.6639684082655058   0.0395008030201497   0.0000000000000000
  0.3969170500997217   0.0580119078642495   0.0000000000000000
  0.6207078374111498   0.0434191086291270   0.0000000000000000
  0.5764634578798972   0.0471137381129498   0.0000000000000000
  0.5315950336908907   0.0505057458089039   0.0000000000000000
  0.4864703541532008   0.0535094607315534   0.0000000000000000
  0.4414549133024901   0.0560390636939180   0.0000000000000000
  0.9901595609719056  -0.0023783411927147   0.0000000000000000
  0.0326649145266362  -0.0334200843455863   0.0000000000000000
  0.9878329678703356  -0.0027145673674890   0.0000000000000000
  0.0733998606732272  -0.0440344159407381   0.0000000000000000
  0.9922372924577029  -0.0020726951087579   0.0000000000000000
  0.8846838814295012  -0.0208009306521702   0.0000000000000000
  0.9852539181750185  -0.0030832573491977   0.0000000000000000
  0.8205556230767344  -0.0253024477924150   0.0000000000000000
  0.9824277530968584  -0.0034836508822686   0.0000000000000000
 -0.0022154120548041  -0.0049277430541563   0.0000000000000000
[...]
POINT_DATA 4142
SCALARS continuity float
LOOKUP_TABLE default
0.007939100419422127
0.007923247218526625
0.007973387719380715
0.007905021924507658
0.007888927995675109
0.007965405864661674
0.007873870715890645
0.00786054653728678
0.00811539706441095
0.007849128898235972
0.008032219902152969
0.00783772549529481
0.008788580559041564
0.007827616654554332
0.007817488515689922
0.006205699204544036
0.007808289790965902
-0.006776744570675121
0.0021522065501626327
0.007800458217375059
0.0009949407090741101
0.007857176053278549
0.003165914490971512
0.007792692979431667
0.00404126251725542
-0.0003451166311642301
0.007992720992154631
0.0077781790108324275
0.004794054166503214
0.005435531698543263
-0.001869735492437182
0.00776415065461987
0.00598069602740479
0.0078087848726635595
-0.003522703680534117
-0.00859294294253745
0.007751074422847333
0.0064411794303739
-0.009901687484645353
-0.005258164956733047
0.006831849360557716
-0.010749830738959779
0.007174651176320216
0.007739368195749667
0.007938948487247053
-0.006990057678105759
-0.01101757978071021
0.007520590005896044
0.007713581124916239
0.0077252253553187576
0.007697429919460899
0.007683185140817191
0.007911847538138344
-0.010657208137604663
-0.00950337706783484
1.983835273920639e-05
-0.001502579683824271
-0.007222800633247211
-0.0048845813410525254
-0.0031508832630721168
0.0013543657451425696
0.0076903490869599704
0.007991117214171554
0.007907186294721986
0.0025115635017014287
0.007672975996542627
0.008191630061922228
0.007663017097277445
0.00789476377797318
0.008331762890901675
0.007654742354854487
0.007883888306687707
0.0083899200995112
0.0035237960138938588
0.007627319738590283
0.007872406428418851
0.008390719063933221
0.007619752110849404
0.008348530651479554
0.008082589630031488
0.00440045138240321
0.0076298570518734165
0.00799097768685545
0.00786133641992078
0.0079294674155254
0.00827725585781416
0.008185422685492556
0.005151119017379242
0.007645186359927119
0.0076641402156181525
0.0078503936829289
0.007738142483591018
0.005789867764102018
0.007687063505467225
0.007706822749873013
0.007712197110771579
0.007840694778999848
0.007690783113581564
0.007695364317510127
0.006330495942233777
0.007830830593293148
0.007621573018008636
0.0076599655895124635
0.00782218955854099
0.006785026476010071
0.0071680668770581065
0.007813551666367295
0.007501977378305865
0.007837958398090887
0.007803968778170656
0.007796701000215287
0.00798720010796249
0.007782736112375855
0.008275511083119117
0.008454982515688172
0.007766245928962361
0.00857451635430945
0.007752673307477863
0.008613005918633577
0.007736674413008347
0.008594830019158752
0.007724434560913826
0.008534275389367274
0.0077064907506506596
0.008445611375090383
0.007696292727199537
0.008336980753850656
0.0076764926684962384
0.008218154325116526
0.007668969541282951
0.008111350502727415
0.008035734436516067
0.00764294722723943
0.007828329288500111
0.007644379678311604
0.007758689118005404
0.007613631021135125
0.00766548465496394
0.007681677321558398
0.007600614694514776
0.007605389789815137
0.007699007301748325
0.007620416499035548
0.007639922964025623
0.007664416222678479
0.007688484416278789
0.00770259532869008
0.007927048341806034
0.0021880691675792248
0.007918577505404633
0.007390217897059475
0.007971099742054314
0.007635736872399527
0.00790094119737764
0.007659066532955189
0.007885645343934955
-0.011439547598833475
0.007866236693680662
-0.0005803673268328498
0.007871034310921574
-0.010820766300577905
0.007857873346688334
0.007889604991838205
0.008156009832592447
-0.008677011580142124
0.007846787235182479
0.007015050919194482
0.007256282964068699
0.007623499387671846
0.007835554756751621
0.0076765561385959856
0.006553584376056915
0.0029031964691488333
0.007825760054521087
-0.0018668221663104756
0.007815744910360462
0.007789138569059229
0.0059732141687274835
0.005187977780867104
0.006300052606790034
0.0067594155043279825
0.00705776402369483
0.006899935583581475
0.006944823981288489
0.007806578343092764
-0.0061607799282769275
0.01110399773579256
-0.011890442321082745
0.001499302623039949
-0.007640938925903663
0.007798921969688346
0.0018063129890187094
0.000250926374929228
-0.009542573873683279
0.007052329873685152
0.0035663319091155236
0.0025983678614230443
-0.0046947004697326915
0.007791165548855713
-0.008795566170018233
0.003549726151607512
-0.003256513658267007
-0.0011898023815344575
0.007699035353390767
0.008361131071677717
-0.010664436529328905
0.007776740370228055
-0.01183784491182605
0.004369496224699347
-0.011504431283450202
0.005069346919518453
0.007897345536309342
-0.002775996648114153
0.007891459647320203
0.007762804550940539
-0.009464912371478226
0.005664641325884438
0.006570287617965271
0.007724281353967925
-0.009751898460581165
-0.004466393120745575
0.007683822871214342
-0.009330217858522852
-0.009747822029706872
0.0077497061088019365
0.007711717364698761
0.00616805785470389
-0.012005821783226445
-0.010489937347120495
0.007700008554201924
-0.006191833999022475
-0.009116627904717513
0.00659479875015419
0.006194736238798572
-0.01121527150774023
0.0042146516793503406
0.006967934195239216
-0.011779792980263642
0.007737949791612173
0.007853055798898207
0.007944228255871426
-0.009144593792641478
-0.007853298409655927
0.0076732232836930515
-0.011420883456468382
0.007937782401943172
0.007334188627698134
-0.011379174561003671
0.0077122420623505815
0.007725705903584916
0.007724067583139543
0.007685055680267202
0.007696100824853314
0.005702385022484403
0.007559412322334078
0.007650032344764376
0.007895142794171263
-0.01163859819755361
-0.011058488785428137
0.007656797981585604
-0.010025738662973547
0.0051894523351031716
-0.0008117586426073849
-0.008477436987104436
-0.0024084517156668143
-0.007855397237720203
-0.00825054934150122
0.004785629813039145
-0.0059175341904185675
-0.011118172795292095
-0.0041273332002116055
0.0011431538838510128
0.0006212103379718318
0.004610844808377622
0.007688993813162896
0.00785824290310136
0.007861771053605799
0.007737357408157571
0.007902261097152906
2.088829079431677e-05
0.0018665955474938944
-0.010259964356316245
0.0076716334777329805
-0.01174961688216121
0.008094738186934125
-0.006465980731586526
0.007662047809345745
-0.011735313979231398
0.007890519549298307
0.007845650036923823
0.00825532103459856
-0.011017685916152797
0.007652956057755089
0.003946988705908282
0.007880715072095179
0.007711300835072456
0.008328906087121269
0.007750306781711812
0.00296122104465015
-0.004978239484659385
0.007626082684743484
-0.00503710071023765
0.00786953289634602
0.0005095716455194596
0.008341420777685675
0.00318423081529408
0.007618279133001818
-0.006116266468572653
0.008308145685650688
0.002315808483632518
0.008059477185461919
0.007537731907024627
0.00391209434774431
0.007764191754010631
0.0076282671260422845
-0.010085922840916958
0.007971340352614998
0.008163033222482031
0.007858724278580441
-0.00874206488979
0.007910288072737581
-0.003620448753797807
0.00824393205623048
-0.008565355279761532
0.008157691177078175
0.0013348300116993966
0.004728172664074377
-0.010265556666280902
0.00764347662545166
0.0077785352122770705
0.00766213835961733
-0.00731195959412402
0.007848038201147616
0.0002450939132890066
0.007729086166598343
-0.011318359220278127
0.005424455432921173
0.007581852228046037
0.007684782227503168
-0.0038832746613542625
0.00770410123249829
-0.0022350593614183867
0.007708849064420792
0.007550970487196841
0.0078384858702814
0.007786180044652846
0.007679624157091723
0.007649320439933999
0.007691100389011302
-0.0009511584461464694
0.0060147491023160365
-0.0001194341362837423
0.00782879274151492
0.009421733434789043
0.007614074177984169
0.0054411586097525165
0.007654343566504913
0.007793900486384016
0.007820322197067348
0.007428533042674841
0.0065119099540966235
0.007803041509000393
0.006930920554728195
0.0078575498744264
0.007811774508549546
0.007812979593058468
0.0072953786499031495
0.007661589051697277
0.007651281400760437
0.011051448813120923
0.007802332009433528
-0.0028446107844645402
0.007795059383020621
0.007822668426459397
0.007863019803112064
0.007519467473553515
0.007781254810374109
0.007776547525670942
0.008145741555714042
0.007631471390264977
0.008357546065265198
0.00783369551057059
0.007764696865111196
-0.010632344392499271
0.008497583480176315
0.008256401202367284
0.00775116557503676
0.006041224923254485
0.008551462864584318
0.007844551423502986
0.00773519814770517
0.006287791130656851
0.008544971720508407
0.007857229479717813
0.007722951636577341
0.007621184206939427
0.008493382517370852
0.007928992107881084
0.007705047735411238
-0.007692272085097807
0.00841185072005845
0.007871312440070936
0.00769490333705492
0.007845583972827124
0.00830892333051553
0.007885971396346182
0.00767507744999057
0.0005168588079068207
0.00819472294333427
0.007962925090944508
0.007667537619746372
0.006531810733605349
0.008091440729774952
0.00790351721915482
0.008016241952126963
0.007828780132292438
0.007641893693340861
0.00791546064833495
0.007819121045857856
0.007611051387455846
0.007642461230843219
0.007294253504347984
0.0077473970703263425
-0.00048390108763452595
0.00761225071994855
0.007227475758553765
0.0076578261379318955
0.007836789907913115
0.007675984762780339
0.00714351203116965
0.007599073273305876
-0.0007447032104434456
0.0076037419834999636
0.0072788181971252764
0.007694611046097242
0.0068837212875386645
0.00761860516415609
0.006905025216205602
0.007637904771585493
0.007761877093065761
0.0076620490421071665
0.0047538725008851165
0.007685664023551473
-0.00184380556052288
0.007699136879524895
0.006909928795412883
0.00764926196187389
0.007565984544849592
0.007876239682614491
0.0077106301698066804
0.007673890876452654
0.007606517078865462
0.007639838077145018
-0.01069985140899125
0.007866438305212671
-0.007187833266155874
0.007848367724059007
-0.007547839034770243
0.000612356398741812
0.0024817369969239948
0.00761242860807085
0.007829841509139158
0.007855575100605737
-0.0003972154869987402
0.007942016450645378
0.0014127285484005737
0.00760383168074198
0.00782051266683868
0.007973844189469895
0.0077235209951664234
0.00785669960106572
-0.00036045358388983584
0.0017012834758910373
-0.006415490386798293
0.007612526857571902
-0.01159477744554548
0.007798716145678968
0.0005783171926843396
0.007845098609322159
-0.011292124676323838
0.007762478762868685
-0.00030842220918575453
0.007962377447195693
-0.01091453861164956
0.007919271388734548
0.007737237715521437
0.0026771427873285413
0.007608869995732114
0.007625854000971338
0.008089216741618766
0.007641978053739617
-0.005415740108029561
0.007834607291936076
-0.005310827103615702
0.007607675697786357
-0.0007687564405548421
0.0035415194346202616
-0.0012396131261088556
0.007661023065250365
0.007556414596317554
0.007675334500141812
0.007751703532177288
0.007673280495075328
-0.0064296430034179435
0.007825338272511135
-0.0022043458420151043
0.007583284407113646
0.007396004616663559
0.007646103354512326
0.007666565065071569
0.004298811158263549
-0.010044209061380885
0.00781563399089434
-0.004230507931635508
0.007539212547764763
-0.008506079647891804
0.007596563371097869
0.0077590385034168805
0.00780728650195873
-0.008739418014189171
0.004956212985624174
-0.0032028598339305147
0.005527020231476552
-0.009719493342291703
0.007798806557116821
0.00889257210603279
0.006031256090411643
-0.007548495394199299
0.006513230170174353
0.007766517154613199
0.0077893503743930005
-0.010916505623483992
0.007782161304671292
0.0077754664528765895
0.006875532891109507
-0.004503993870977324
0.007768436443103414
0.007785205222203611
0.007300584123111662
0.007411462505748799
0.007654415496116125
0.008117126043007714
0.007751951359954551
0.007598402566543388
0.007917103057389773
0.007794648562895349
0.007738598040224801
-0.0011193337121216107
0.008071844507155037
0.007642512425185133
0.007722667776949319
0.0032420810322242267
0.008146448874773062
0.007805423529862694
0.007710460997676815
0.007209587837446601
0.008160014066370848
0.008025470838632913
0.0076925451429968065
0.007814096123812958
0.008131137459440106
0.00781579369299533
0.007682351268252488
0.007578258861539013
0.00807125163113128
0.007827999032515454
0.007662466844941117
-0.0036953596928759967
0.007992709038079967
0.007870883393854852
0.007654836488466176
0.007374823967848749
0.007919486491389491
0.007841464612828187
0.007868987033393506
0.007579515298676382
0.007629020469718287
0.007855130897453533
0.007698176606545996
-0.010289258794559407
0.007629224140419829
0.007914845240165566
0.007651375736336937
0.004040638200910402
0.007598481954351083
0.00787099453052506
0.007583240562882194
0.0016016214275548484
0.007618455398415627
0.007879802329943602
0.007584507610484632
0.007568114063697498
0.007587912137449399
0.007228142973381834
0.00764985323406322
-0.007481997467149151
0.007600904073103352
0.007141767541334034
0.007617654325744768
0.007800423854738523
0.007638290713459693
0.007109837162130275
0.00765695804365473
-0.00020906130775126314
0.007663661407582294
0.006982017652880696
0.0076744919277753915
0.0075820789276372594
0.00030480153811522794
0.007826226148365876
-0.006663292421232349
0.007126326341367329
-0.011154648422816556
0.007571336633157208
-0.0013694169765227364
0.007282003171488708
-0.01075173027707936
0.007425053875503351
-0.0019963313280189584
-0.0008758352680018698
-0.010541127163946947
0.0075770165033577355
0.007688149544096789
0.007427888366810076
0.007464706082740628
0.007815964408343217
0.007972132437246954
0.007443031120946159
-0.005261029403961919
0.007373286292171492
-0.005701334433761981
0.007415708066604634
-0.0006253942903281849
5.31730584111876e-05
-0.002638349643321844
0.007585838292776482
-0.006292636532352907
0.007595949344185422
-0.003306491029393032
0.007805785821620389
0.007168078421397761
0.00733986738880503
0.00778881210769127
0.0009370036618790107
-0.009732332984700698
0.007606674528051127
-0.004816757380125959
0.007609696843500671
-0.008221883462225783
0.007592204899805502
0.007710115890389332
0.007796750830290415
-0.00858049826551121
0.007370787148598728
-0.004027699709875418
0.007544283751997511
-0.006098840739514352
0.0017674121166304337
0.008487728309968386
0.007787347735327987
-0.007418153466679833
0.007372781908540758
0.00771731331609792
0.0074667950012719895
-0.010424960438192975
0.007779189194691246
0.007726015660027098
0.0025367663439202943
-0.004344901676773142
0.0032442020960119743
0.007735549011812373
0.00777083026515748
0.007188236435554274
0.0038987563957301355
0.008658719034659064
0.004537007905366744
0.007509899618031806
0.007761549372343173
0.007744800858456622
0.0077548753093303275
0.007783760211381878
0.00509424564621583
-0.0008038452622173595
0.007740971355779523
0.00784065818875133
0.005730182928384345
0.0010912655993993018
0.006308420995218844
0.007755553306005733
0.007724698731329469
0.006872096521196351
0.00677758582241429
0.007997025741795215
0.007711381452836127
0.0077521412727241615
0.007109220092113808
0.0077659203183388335
0.007695551787765105
0.007442275353919595
0.007332507925699891
0.007778522046429541
0.007683366227759118
-0.0035578812905704437
0.007469700151155361
0.007858274412325717
0.007665375782275051
0.007141281035325518
0.007543569405900341
0.007792934202653927
0.007655053232332105
0.007489093812416359
0.007569123529045445
0.007807746753240853
0.007634958708900942
-0.009866667711470576
0.007562309109078395
0.007867698115184377
0.007627001825755914
0.0018269832848078784
0.007549800254159269
0.007824170876339324
0.007550584214915304
0.006331233453151768
0.007600649912687181
0.007835855218296611
0.007431239503418047
0.007475140836555575
0.007600126861853375
0.007561815535232453
0.007439677020259668
-0.007239878800683966
0.00756784185896579
0.007486280013860043
0.007417516419785355
0.007736505160161465
0.007489199806963193
0.007571960470802596
0.007551786945885034
0.00028282490610904277
0.007552158059893825
0.007582824963159588
0.007548458227899803
0.0025920221225939825
0.007560870814354178
0.007589903612758105
0.007571587977059484
0.007720022186612937
0.007583997489913482
0.007705459166516332
0.0075914963289130805
0.007460092396883549
0.007582968272054512
0.00770325603297042
0.00026496799784791276
0.007789926286003247
-0.0014615576783536014
0.005323303048093397
0.007687198585029035
-0.0029650964061317844
0.007591514911972317
0.007524289844280846
0.0011318792812757496
0.00777776354752571
-0.006459585797877287
0.005766970465174125
-0.010617239693154605
0.007508812496791021
-0.0018190655925890739
0.006101992140352379
-0.010213090800607887
0.00665377605158021
-0.0022130168399951203
-0.00228820941563762
-0.01008278849054256
0.00750797567218852
0.007605883926238365
0.006757750668521551
0.001100759270043112
0.007766322178647797
0.007868027881109733
0.006859020657124331
-0.005062350263048247
0.006349878429182353
-0.005493777692606412
0.006527665132875289
0.00013695269025496714
-0.0016448798091436717
-0.002671787367042833
0.007507975419632169
-0.006121728721459158
0.007505922031618981
-0.003210067201139216
0.007755437992648182
0.006813056405694869
0.006845067925516844
0.007778948250542768
-0.001016777515296369
-0.00934844069355374
0.007500269440340974
-0.004615879606075612
0.007481259752954588
-0.007985383573583943
0.007434235041415419
0.007628565801144211
0.007746290726337959
-0.008333970886291377
0.0069731501790547224
-0.0038578953132548137
0.007347093820104823
-0.009176235599690961
-0.0003938871294770097
0.008061472491606379
0.007736892538632317
-0.007233959651739149
0.007057752267798634
0.007635482424952108
0.00721808188464209
-0.00993747862104124
0.007728896578041394
0.007644066902243623
0.00022825000762166032
-0.004090504130787614
0.0008512902786306054
0.007653799294494231
0.007720744116987793
0.0068419764249147115
0.0014777418607593996
0.007929909073152394
0.0021319783411426724
0.007361929225568441
0.007711719575499794
0.007663353803520676
0.002794467053186493
-7.747589161172377e-05
0.007691146714229583
0.007767394041950242
0.003536253868739541
3.3531015604616222e-06
0.004313272818658579
0.0076751618484033396
0.00767478450400104
0.0008245064115594648
0.00500462468187145
0.007857736796339646
0.00766156433406586
0.007672666675731199
0.005553173746656909
0.007687352887479264
0.00764559988976685
0.0072276155088093095
0.005976892162700706
0.007703223269196297
0.007633292628929339
-0.003231189830010722
0.0062930167861753525
0.007794864868432373
0.007614919982149978
0.006776320100299374
0.006523150061713889
0.007722077878426179
0.007604234591926991
0.007337213988074707
0.006683851317726158
0.0077417023811900635
0.007583362266381576
-0.009456654749029562
0.006793672370224013
0.007797399615594233
0.007574695395749639
0.0003445252466958062
0.006882009852029161
0.007760277243182492
0.006968654054888504
-0.008129143901983308
0.007547141591034798
0.007774041955734861
0.006938288749838287
0.007318903272973739
0.0075450570879429125
0.007597617979935079
0.007043648329914445
-0.007071163400922172
0.007509414767564076
0.007544371786781392
0.007103947999383995
0.00765361513582608
0.007241639834469556
0.007554615444895426
0.007488903521833287
0.0011869031094801617
0.007483022723815171
0.007574517299195113
0.007352186500335322
0.0008164928839480613
0.007482895002391626
0.00766142353022344
0.007481674167951548
0.007624403940156372
0.007477888549453075
0.007623151977247467
0.007463546488937596
0.007297046924711472
0.007425710798209645
0.0076222126612904804
0.000980441222855921
0.007722311552689174
-0.001029484582548024
0.003284308020786873
0.007584627810386921
-0.002896376889850714
0.007457283944937813
0.0074212352994500064
-0.008463234000156576
0.007705124216971181
-0.006228187304620001
0.0038888999960114924
-0.010084375643816612
0.007396840388851387
-0.0013254244334954543
0.004399524817252971
-0.009680090509372033
0.005443387504599479
-0.00170380077274633
-0.0023421213742989538
-0.009632747255866717
0.007383735247659407
0.007474131166041824
0.005685163378129212
0.00623531283617211
0.007689387456319107
0.007774090710105372
0.005907756500951884
-0.004999878591367922
0.004822179370492349
-0.0052387959187737785
0.005165073230668843
0.0007293480171594366
-0.0018800565483616512