# vtk DataFile Version 1.0
GRUMMP topologically 2D mesh
ASCII

DATASET UNSTRUCTURED_GRID
POINTS 4142 float
  0.9902132100051211  -0.0013897599745845   0.0000000000000000
  0.9878682672001325  -0.0017209544766007   0.0000000000000000
  0.9922830260938109  -0.0010965337451688   0.0000000000000000
  0.9852627687065505  -0.0020876945602550   0.0000000000000000
  0.9824126515147726  -0.0024873693035198   0.0000000000000000
  0.9941016532545700  -0.0008382294190312   0.0000000000000000
  0.9793229395886266  -0.0029189889321549   0.0000000000000000
  0.9759912936709813  -0.0033826574903297   0.0000000000000000
  0.9957253756688895  -0.0006072067599891   0.0000000000000000
  0.9724158418644283  -0.0038783672872607   0.0000000000000000
  0.9972114818934485  -0.0003956828894990   0.0000000000000000
  0.9685983419668763  -0.0044053177853816   0.0000000000000000
  0.9986172604849257  -0.0001958749290171   0.0000000000000000
  0.9645418982154840  -0.0049624143705746   0.0000000000000000
  0.9602493276520160  -0.0055486932126648   0.0000000000000000
  1.0000000000000000   0.0000000000000000   0.0000000000000000
  0.9557225436143375  -0.0061636003738353   0.0000000000000000
  0.9986172604763917   0.0001958749302285   0.0000000000000000
  0.0136778115501445  -0.0198442283865115   0.0000000000000000
  0.9509632892996972  -0.0068066585239019   0.0000000000000000
  0.0111799405480040  -0.0180409152078963   0.0000000000000000
  0.9972114818757430   0.0003956828920181   0.0000000000000000
  0.0164236219435115  -0.0216216850259729   0.0000000000000000
  0.9459737546847580  -0.0074771440326796   0.0000000000000000
  0.0194159763686392  -0.0233724637256901   0.0000000000000000
  0.0089312659290954  -0.0162123970812813   0.0000000000000000
  0.9957253756403164   0.0006072067640564   0.0000000000000000
  0.9353156997544615  -0.0088958032333210   0.0000000000000000
  0.0226532123065557  -0.0250954152174871   0.0000000000000000
  0.0261336316774566  -0.0267893559859237   0.0000000000000000
  0.0068429846519911  -0.0142695304151425   0.0000000000000000
  0.9237713702124288  -0.0104115615140689   0.0000000000000000
  0.0298554003449755  -0.0284531869488138   0.0000000000000000
  0.9941016532123735   0.0008382294250309   0.0000000000000000
  0.0050308200222286  -0.0123013782195995   0.0000000000000000
  0.0012596550434314  -0.0062543845982477   0.0000000000000000
  0.9113626015789812  -0.0120184565864932   0.0000000000000000
  0.0338165365583016  -0.0300859006297539   0.0000000000000000
  0.0005600587198625  -0.0041872521188657   0.0000000000000000
  0.0034956879705714  -0.0103096477045821   0.0000000000000000
  0.0380150486067802  -0.0316864834866382   0.0000000000000000
  0.0001400674572995  -0.0020989425108620   0.0000000000000000
  0.0424489169588349  -0.0332538061244847   0.0000000000000000
  0.8981160449036193  -0.0137076729882106   0.0000000000000000
  0.9922830260341767   0.0010965337536290   0.0000000000000000
  0.0022384105171692  -0.0082946477552229   0.0000000000000000
  0.0000000000000000  -0.0000000005380880   0.0000000000000000
  0.0471161050109934  -0.0347866680569130   0.0000000000000000
  0.8692172420003259  -0.0173025512123363   0.0000000000000000
  0.8840586048664243  -0.0154712341935952   0.0000000000000000
  0.8536242589802903  -0.0191927756559575   0.0000000000000000
  0.0520144653095357  -0.0362838744017245   0.0000000000000000
  0.9902132099234322   0.0013897599861408   0.0000000000000000
  0.0001400673054027   0.0020989413744649   0.0000000000000000
  0.0005600583994229   0.0041872509286527   0.0000000000000000
  0.0089312642537700   0.0162123956290166   0.0000000000000000
  0.0068429832427153   0.0142695290019493   0.0000000000000000
  0.0022384098100130   0.0082946464730838   0.0000000000000000
  0.0034956870455263   0.0103096463775504   0.0000000000000000
  0.0050308188630767   0.0123013768482443   0.0000000000000000
  0.0111799386902237   0.0180409137864515   0.0000000000000000
  0.8373107726191357  -0.0211334926288444   0.0000000000000000
  0.0624935355792051  -0.0391666954139108   0.0000000000000000
  0.9878682670932252   0.0017209544916756   0.0000000000000000
  0.0136778095139640   0.0198442269960848   0.0000000000000000
  0.8203090273240524  -0.0231167391866414   0.0000000000000000
  0.0738633143603066  -0.0418930499584099   0.0000000000000000
  0.8026551811301268  -0.0251343400368426   0.0000000000000000
  0.9852627685719384   0.0020876945791685   0.0000000000000000
  0.0861021386417074  -0.0444536409739349   0.0000000000000000
  0.7843840873894279  -0.0271778197795966   0.0000000000000000
  0.9824126513500548   0.0024873693265746   0.0000000000000000
  0.0991843265815398  -0.0468392532814141   0.0000000000000000
  0.0164236197329729   0.0216216836667636   0.0000000000000000
  0.7461418339277840  -0.0313078737465108   0.0000000000000000
  0.9793229393907722   0.0029189889597428   0.0000000000000000
  0.1130825286139299  -0.0490420520078216   0.0000000000000000
  0.7058944105034720  -0.0354399888107516   0.0000000000000000
  0.1277704618123611  -0.0510562827506626   0.0000000000000000
  0.1762568929815641  -0.0559042078350805   0.0000000000000000
  0.0194159739879911   0.0233724623981675   0.0000000000000000
  0.6639684116827792  -0.0395008026994765   0.0000000000000000
  0.1937838883744062  -0.0571083155282771   0.0000000000000000
  0.9759912934368556   0.0033826575228533   0.0000000000000000
  0.2119350336566717  -0.0581032139582273   0.0000000000000000
  0.1432165586985055  -0.0528747491799113   0.0000000000000000
  0.1593891568184451  -0.0544918670991958   0.0000000000000000
  0.0226532097601106   0.0250954139222151   0.0000000000000000
  0.6207078411914361  -0.0434191082996254   0.0000000000000000
  0.5764634620046084  -0.0471137377839725   0.0000000000000000
  0.9724158415910057   0.0038783673250912   0.0000000000000000
  0.2306739249637577  -0.0588890260835713   0.0000000000000000
  0.0261336289695199   0.0267893547234291   0.0000000000000000
  0.5315950381341085  -0.0505057454921963   0.0000000000000000
  0.4864703588817339  -0.0535094604401647   0.0000000000000000
  0.4414549182767121  -0.0560390634426787   0.0000000000000000
  0.9685983416513994   0.0044053178288238   0.0000000000000000
  0.2697570606452168  -0.0598365819607799   0.0000000000000000
  0.3969170552729402  -0.0580119076690758   0.0000000000000000
  0.0298553974799863   0.0284531857194991   0.0000000000000000
  0.9645418978552561   0.0049624144199126   0.0000000000000000
  0.3107174127482247  -0.0599745523566999   0.0000000000000000
  0.3532197168655907  -0.0593474025151865   0.0000000000000000
  0.9602493272443249   0.0055486932681955   0.0000000000000000
  0.0338165335406938   0.0300858994339835   0.0000000000000000
  0.0380150454409591   0.0316864823247920   0.0000000000000000
  0.9557225431564565   0.0061636004358678   0.0000000000000000
  0.0424489136491938   0.0332538049970267   0.0000000000000000
  0.0471161015618897   0.0347866669642923   0.0000000000000000
  0.9509632887889385   0.0068066585927330   0.0000000000000000
  0.9459737541185675   0.0074771441085412   0.0000000000000000
  0.0520144617255517   0.0362838733443521   0.0000000000000000
  0.9353156990700551   0.0088958033238094   0.0000000000000000
  0.0624935317401540   0.0391666944281135   0.0000000000000000
  0.0738633102849253   0.0418930490455120   0.0000000000000000
  0.9237713694002159   0.0104115616199952   0.0000000000000000
  0.0861021343485112   0.0444536401350998   0.0000000000000000
  0.9113626006299211   0.0120184567085017   0.0000000000000000
  0.0991843220904188   0.0468392525175462   0.0000000000000000
  0.8981160438094651   0.0137076731266115   0.0000000000000000
  0.1130825239435962   0.0490420513187447   0.0000000000000000
  0.8840586036192291   0.0154712343488011   0.0000000000000000
  0.1277704569818227   0.0510562821360933   0.0000000000000000
  0.8692172405930260   0.0173025513845012   0.0000000000000000
  0.1432165537277111   0.0528747486397878   0.0000000000000000
  0.8536242574066383   0.0191927758449732   0.0000000000000000
  0.1593891517258480   0.0544918666322352   0.0000000000000000
  0.8373107708732270   0.0211334928345504   0.0000000000000000
  0.1762568877862003   0.0559042074398506   0.0000000000000000
  0.8203090254010921   0.0231167394087162   0.0000000000000000
  0.1937838830953411   0.0571083152030304   0.0000000000000000
  0.2119350283118140   0.0581032137003017   0.0000000000000000
  0.8026551790260408   0.0251343402747870   0.0000000000000000
  0.2306739195716207   0.0588890258904683   0.0000000000000000
  0.7843840851007032   0.0271778200327233   0.0000000000000000
  0.2697570552113356   0.0598365818878674   0.0000000000000000
  0.7461418312636445   0.0313078740273454   0.0000000000000000
  0.3107174073396524   0.0599745523895525   0.0000000000000000
  0.3532197115457904   0.0593474026374948   0.0000000000000000
  0.7058944074605978   0.0354399891145804   0.0000000000000000
  0.6639684082655058   0.0395008030201497   0.0000000000000000
  0.3969170500997217   0.0580119078642495   0.0000000000000000
  0.6207078374111498   0.0434191086291270   0.0000000000000000
  0.5764634578798972   0.0471137381129498   0.0000000000000000
  0.5315950336908907   0.0505057458089039   0.0000000000000000
  0.4864703541532008   0.0535094607315534   0.0000000000000000
  0.4414549133024901   0.0560390636939180   0.0000000000000000
  0.9901595609719056  -0.0023783411927147   0.0000000000000000
  0.0326649145266362  -0.0334200843455863   0.0000000000000000
  0.9878329678703356  -0.0027145673674890   0.0000000000000000
  0.0733998606732272  -0.0440344159407381   0.0000000000000000
  0.9922372924577029  -0.0020726951087579   0.0000000000000000
  0.8846838814295012  -0.0208009306521702   0.0000000000000000
  0.9852539181750185  -0.0030832573491977   0.0000000000000000
  0.8205556230767344  -0.0253024477924150   0.0000000000000000
  0.9824277530968584  -0.0034836508822686   0.0000000000000000
 -0.0022154120548041  -0.0049277430541563   0.0000000000000000
[...]
POINT_DATA 4142
SCALARS continuity float
LOOKUP_TABLE default
-0.008612688114879547
-0.007475717760250586
-0.010172480737933953
-0.0067233938008675765
-0.00627134110925115
-0.012903840589171071
-0.006041463361156401
-0.005956135911301005
-0.020655089631948845
-0.005952179032263945
0.0005323568399526677
-0.0060212916835373125
0.0027603632677275815
-0.0061075745468213375
-0.006252184129644896
-0.0018396164642804223
-0.0064261115624851175
-0.003786609064166274
0.0029894072237490067
-0.0066162739847814836
0.0026036177185226822
0.003182529608857929
0.0032031556073965173
-0.006627080963804665
0.003200443870375566
0.0006315130519519219
0.02166798960530778
-0.006839621061568512
0.0029782785158474225
0.0026569508886847837
-0.000221909353534109
-0.0070175055341811675
0.0022162289331030737
0.015373066849325389
-0.0023802654412219833
-0.007930189108858694
-0.00718223747684796
0.0017094941363011797
-0.008095941033227473
-0.00460374180041586
0.0011031009551242484
-0.007542878499874474
0.0004286396535263707
-0.007364584284676917
0.012028339225410668
-0.0066523864921808
-0.004613954741180798
-0.0004428658641497254
-0.007581527246780398
-0.007515478965616429
-0.007827969976172989
-0.0010249982962456305
0.010606059619526995
0.004514716475749928
-0.01929036059270119
-0.002391907668028949
-0.002460699232684803
0.016137887530508953
-0.010137185214353993
-0.004296950680840896
-0.0032834694692564313
-0.007997234216087168
-0.0025197659932587615
0.009365668907954781
-0.003227587477332934
-0.008205862296699203
-0.002543451770901928
-0.008562727427398768
0.008616261865648936
-0.0026172234608414446
-0.008071568379215476
0.00814946168622181
-0.0027874987266231633
-0.0030368375304812836
-0.006944968927993186
0.007848306914049672
-0.0029152564679446867
-0.00545895904856204
-0.002846837563727024
-0.001683512326925019
-0.0026852479700232353
-0.0036197722750788653
-0.0012032992030801858
0.007691910788292439
-0.0003912199294699748
-0.002560703767972356
-0.0021272077674805733
-0.0022270336957365385
-0.0015354119523192276
0.0003493937449293925
0.007669948444889157
0.00030465415593288717
-0.001678698856410677
0.0016185916850448277
0.002432590250708299
0.003431433676108716
0.007741686166153304
0.0030212311731395206
0.00501800198535139
-0.0010603243889543965
0.007828144618435458
0.005675143620290123
0.006347277162611068
0.008014754551134108
-0.00039664865550298353
0.00032645413508295654
0.008145442225448808
0.0011228625951019483
0.0014707723217603408
0.008355468032820576
0.00866393368494579
0.003849436682924114
0.008941350868822457
0.003801707854800005
0.004631842377131101
0.0093040661032182
0.00467876921193957
0.009906615161674659
0.004774349084356897
0.01025605963541402
0.004844626880768909
0.01068124619459056
0.0046959898814042675
0.010768964929019352
0.004303788851832228
0.011079619305346086
0.00373095825882218
0.011144005236321213
0.0030767473350112482
0.01153590499560119
0.002273180763636697
0.000951425471071373
0.011820110608125411
0.0003124683750997312
0.011669868535139434
-0.003187100358788335
0.010539309851574785
-0.006439279641039956
-0.0073526346656741706
0.00886619773422497
0.007199238538659782
-0.005387692393266875
0.005222614116859362
0.003152367109112266
0.0012336694192504635
-0.0005638198647370665
-0.0027086626376579383
-0.008503120626771138
0.00042053765973025547
-0.007273353671873111
-0.00208529700847986
-0.009521748127284298
-0.007368945196483396
-0.006587847992621395
-0.008090494363838338
-0.006147403299099752
-0.00575801923955163
-0.012373864126491269
0.000139108172978005
-0.005933057788997173
-0.0009935751999535353
-0.00585084990016578
0.009162963879937798
-0.015382048320513014
-0.005373162302118819
-0.005859525104387968
-0.0023140599499347847
-0.010642754736152959
-0.007407469779184815
-0.005938580427719581
-0.00788290380639868
-0.04458495501329002
0.00018911972894723535
-0.0060328948199507085
0.0005808412011475747
-0.006176975971865936
0.010045106347840825
-0.0005367782344241495
0.010263436068278993
0.005635533633075726
6.47975937985468e-07
0.0008346189164713988
0.002192122174265335
-0.00023257033181985025
-0.00634796139937535
-0.0008271764358534306
0.05123907004641383
-0.004573544024329843
-0.003852923319664623
-0.004474135678362253
-0.006521378304404686
-0.0007938526553328316
-0.00536429489367652
0.003580242586515788
0.0161787156123885
-8.642967683552757e-05
-0.002547997528716777
0.0009958716490824748
-0.006563316599171932
-0.003518683817071199
-0.0014909139201831443
0.0010901272647434851
-0.007550101271549779
-0.007244908639469564
0.016358422834459433
-0.0024373925713855812
-0.006736345613553974
-0.0018288887897441358
-0.0007518517830210761
0.0014045146896663728
-0.0002543389149685138
0.010921656064891712
-0.009183709718816439
0.010305294724259943
-0.006919754593510626
-0.00446668385019935
1.767563289089801e-05
-0.001052444820386286
0.015410189144889418
-0.006149396816528955
-0.01086704469091336
-0.007726529844529103
-0.011681517579844527
-0.004761183316367453
-0.0070748932975328695
-0.007420352529647682
0.00011207846408546135
-0.002311003579994686
-0.009931516264058702
-0.007482618601076214
-0.011988807226538844
-0.004000498048065154
-7.357781093176566e-06
-0.0008672385307208546
-0.007351590585705151
-0.0008162124539198813
-0.0003088188122749636
-0.003278519264635687
-0.007260929038864558
0.010962009626429944
0.01138506883670444
-0.006533427378241679
-0.01231028475351079
-0.007446694299407043
-0.0037918265032076824
0.012109915825906141
-0.0009257260691239545
-0.00135341921968522
-0.007477447006750021
-0.007263620882706838
-0.007419562702383929
-0.007394738363860514
-0.007729476423990212
-0.00018405582544519519
-0.0011144159416120538
-0.007230400052316721
0.01062145592353416
-0.005431404796437595
0.003829528246940839
-0.007681748662192466
-0.0016492692622629465
0.0001497270259626891
0.004247618533043962
-0.0029808142485625074
0.00524570492275969
-0.005834337683666687
0.010892251714535223
-0.0008545146175907071
-0.0010220976043351791
-0.006371584605237271
0.0035548632477067294
-6.0146299741265625e-06
0.0025121638820509813
0.00038329005405876625
-0.007896665703603485
0.009857487880967753
-0.002343148956470805
-0.007083854231599854
0.009222239965267156
-0.0006707870873574504
0.0013001390604088993
-0.006798965408617493
-0.008107885442651903
0.001240172718749781
-0.002137242801110393
-0.004855933153921153
-0.008419256350777098
-0.003634372462981262
0.008528779369025567
0.013984596269442474
-0.002078944286029759
-0.00025637298658327053
-0.008021296132233359
0.0004204584839727372
0.008062970371546732
0.009753708568907575
-0.0021738001404846582
-0.006925375086384109
0.0003130151982509245
0.0007193363663001346
-0.006825271237407887
-0.0037799795871467892
0.007770104727041089
0.0003495233295287353
-0.0022722204865128545
0.0003499443250312656
-0.005348398291387014
0.0007147603339615267
-0.0022021225944646944
0.00016135243168958682
-0.0011100677480668252
-0.007336779302405495
-0.0003607038323081698
-0.006745092425897431
-0.0035113438954230366
0.0035714252925875623
-0.0006737633788104533
0.023833297874580925
0.007620024537737811
-0.0039361983036977355
3.540867955986949e-05
-0.002906799520384605
-0.0019283895529340431
-0.0018219426127374736
-0.0015206435854252375
-0.00018212807421502837
-0.0007662059159045085
-0.0007295183839941948
-0.001412850844970056
-0.006563143419161871
0.0004817227497091817
-0.0002718486995565656
0.0076002089126425
-0.0006402409598228118
0.0008681491750582532
-0.004597706211217801
-0.000936606318135364
0.011307890553941005
0.0017640955792937586
0.0004457123370909926
0.0025993995315841986
-0.0018340436797799533
0.003618681403371406
-0.0073197384269382566
0.0076753037619652275
-0.0065165644282520006
0.0033898939536649176
-0.00783224872167988
0.005237558597150867
-0.0012197972481196324
-0.0008972473147296092
0.0007288998246939821
0.007762373187233337
0.07331143825209253
0.005989593410475514
-0.002132574324861775
0.006610042787207614
-0.006336781147388846
0.007950496602343829
-0.007141317589146849
-0.0006688318569729181
-0.006167982685423539
-0.00028719524050218584
0.00895605426580235
0.008078398595235816
-0.006026582372408292
0.0003079299691539701
-0.007067417200290676
0.00085195833405123
-0.08387810005373922
0.008273527536550956
0.00027044623789476024
0.008615470640956604
-0.005943030617011221
0.002131519223290589
-0.00753388166117612
0.00886343586138184
-0.006542802343195065
0.002674319352263474
-0.00803186651623289
0.0033271400583166385
-0.0058654203050285065
0.009230043320779762
-0.005006699593327835
0.0034068311528262195
-0.024030034939910943
0.00983086710984854
-0.0017849756972511234
0.00357029844701516
-0.005871904448906081
0.010177537701097798
-0.004744018364524417
0.003725140228987256
-0.005953848546997649
0.01060134999372036
-0.008342531014267664
0.0036723548787309553
-0.011334622497022866
0.010690981553082466
-0.0027937688040560577
0.0033786620743076847
-0.006168347858087461
0.011002214447133752
0.008343572999966338
0.002896945886566812
-0.006582319194088756
0.011067619870763327
-0.0006618117880268714
0.0023280983679746206
-0.010456737538501671
0.011455192054062622
-0.0017152293212975166
0.0016203766631881346
-0.00730568051746416
0.00045807936279214736
0.01201021203302189
0.011701371401513685
-0.008290033370333003
-0.00036136161720663035
-0.007929386830377319
0.011640053096403308
0.007189944344556025
-0.003583681031834411
0.0007426223751918899
0.010437907993191676
0.010599509099322562
-0.006772673956912285
0.007974502273922027
-0.007624926462315924
0.000392624254963182
0.008774986539516786
0.0010387464309405598
0.007094118333965891
-0.01016375346675755
-0.00560979734451108
-0.0018032057748860466
0.005108112184249507
-0.011423667827095908
0.003024489506823426
0.00912030597480333
0.0010905221562078236
-0.0013770102798515522
-0.0007299453412593494
6.686940777882457e-05
-0.0028992483261337377
0.012998866427415639
-0.008408460264179546
-0.007202023528832188
0.008456645643439604
-0.007071010238649255
-0.002027811029678973
-0.007626387680492484
-0.008008321139532256
-0.006359387957380649
0.00802488418918815
-0.0018015696336732276
-0.0021158269689459347
-0.00424216779224339
-0.00029306014616152325
-0.0007329989490424821
-0.0068088843006237475
0.012410576740507983
0.007743419631286714
0.0002556772204566299
-0.002212218676161671
0.0004652671802606504
-0.005319073492027868
0.009498173875190247
-0.002141336033076021
-0.006921086377910532
-0.0010492533384104487
-0.0002496000221955516
-0.0005864161502470879
-0.003010188599985957
-0.003466107739103659
0.0007918263522691533
-0.0006043262649185512
0.0004771002894035619
0.007603671311942884
-0.003025687072092137
0.00012200854393657533
0.0003781052638655919
-0.0018756734215481712
-0.00015653576852008429
-0.001465425718195108
-0.006744288481324801
-0.0007601574483800469
0.009297367420523431
-0.0013630754015430226
0.013202152839982937
0.0005382920379003752
-0.00043997389823383765
0.007590237640338206
-0.0019823117266489472
0.0009424307916012279
0.0008439740423299158
-0.0007745056263752983
0.00022472488144813173
0.0018187817137325995
-0.007806514532624066
0.0026516592932142543
-0.0065643059885891475
0.00366443699128231
-0.0002306292369967977
0.007669550579097635
-2.257952050724927e-05
0.0034475518611886613
-0.007199242383619508
0.005278827540005061
0.012689209015420031
-0.0006553732487108953
0.002329608114296345
0.007760779567501128
-0.0009711035983699411
0.006032952398266298
-0.0037667799243331253
0.006650530206882758
-0.006524239316834994
0.00795337603155411
-0.0009324182210468931
-0.0004311362274926966
-0.00041072369388612775
-4.08967487356599e-05
-0.0004771486966847739
0.008086012629850415
0.010901188499968356
0.0005096762802178571
-0.0005646912685384615
0.001027659408839325
-0.006349218857461429
0.008288727312741485
-0.004114273766572674
0.008630787959169241
-0.00617752741525091
0.002140257776475604
-0.0006569001056563307
0.00887750261273918
-0.00604374483126005
0.0027347826950814475
-0.0072207227481352445
0.003339295125455736
-0.011006799279819124
0.009246635989596928
-0.0077601238512674305
0.0033753479167761996
-0.0059614822119829014
0.009834941837677783
0.0014758992911933161
0.003504773058463879
-0.00917905493617038
0.010179708883319928
-0.0019974589643429403
0.0036454165453582844
-0.005888369946626907
0.01060344927115719
-0.006954932535893395
0.0035987301727723794
-0.012413107065274197
0.010691181760204609
0.00878102810164155
0.003316716237452043
-0.00589338734988109
0.011004660373221098
-0.007061748673141135
0.0028464426622785946
-0.005964399988941752
0.011065528417650123
-0.0007106203356759626
0.0022906484826951895
-0.009924352208528166
0.011448899363111059
-0.0073549936288110134
0.0015894828848096337
-0.006161389225401798
0.00040208656307108077
-0.007939608062684112
0.011698762075349582
-0.006517395053576078
-0.0003902489147197539
-0.00461401994431766
0.011635226829195438
-0.009251249813208417
-0.0036045828757919293
-0.0014919242773047767
0.01043478736154806
-0.007148154946833161
-0.0067847767632173255
0.00037825708624628735
-0.007636785094375204
-0.007897195314527209
0.008761182757635566
-0.00823509497856682
0.007074896854340044
0.004274872682340813
-0.005627448538757359
-0.0026730152515651176
0.005079059343578238
0.00147732475522209
0.0029889070722359202
0.008231165124617171
0.0010531356590664494
-0.0014835787872901718
-0.000760735113599221
-0.00052624574185056
-0.002921741377301301
-0.004286797349724202
-0.006929252596716854
-0.006724940281469993
0.00024528988142999636
0.007719618771047925
-0.0015550479783386275
-0.0019126253329188273
0.0007453063749656082
-0.005211611309067906
0.0013154649635763736
-0.0018706556138887677
-0.0024842182159738385
-0.0008362380046277601
0.0015233889951372843
-5.732754167434996e-05
0.00033482093166801145
-0.0033340990885018995
-0.006763431764527233
-0.00038991203277000645
0.009325926730027885
0.007598215530308038
0.017013429360224475
0.0003142522958640721
-0.0005320961261262278
-0.0016313145350344514
-0.0004021293884421291
-0.0012452222358736672
0.001415914340551266
-0.00016599160457607647
0.0016392700231229779
-0.0012172468151305197
-4.0254674851510595e-05
0.0006971474570535065
0.0015456479165999177
0.007596652105893454
-0.006885949395711886
0.0011267423930119902
0.014109331318347832
-0.00024107877545189384
0.002207393848672221
0.0019798470815744194
0.0006202519344633606
0.00280372129477132
-0.0034599393959934416
0.003805703399926793
-0.006554868141446413
0.0076863822422761265
0.00046318012510255087
0.0035909092753571552
0.0012175933908314415
0.005424181790711326
-0.0010248323456128227
-0.00024112969498953486
0.033940281857028326
0.007776986611257051
0.0001800441121142693
0.00618696489321273
-0.006383597218344834
0.0068010372353608664
-0.0035095793380342855
0.00797463797043257
-0.006217001889831152
-0.00015185596126656114
-0.001012757470691587
0.00010497413470304549
-0.0060856154152573744
0.008109713121432549
-0.006971946645534755
0.000512342990914499
-0.03578190206379703
0.0010539227858556244
-0.007640822321716085
0.00831453291147818
-0.006016586892671894
0.00866216866456933
0.010685016506849972
0.0018963443149872755
0.001999015915266206
0.008897708426517492
-0.011024077071084548
0.002558964629468036
-0.0018986374709524907
0.0029902258971426197
-0.00594437298589309
0.009253002718250641
-0.006440325069541203
0.0029883881953877457
-0.016150148931246038
0.009842395571246818
0.008614876247617894
0.003097596169202972
-0.005947884681999902
0.010181417090364799
-0.007030629262497474
0.003245705147114904
-0.006002624314583156
0.010602134083479185
-0.0013194860034219157
0.003230617502066442
-0.009676914461837998
0.010688727240474325
-0.006972132064237284
0.0029939354299316364
-0.006160357455789599
0.010999091052030443
-0.007793304201970089
0.0025735233280936537
-0.006441393709387314
0.01105370037919008
-0.004021341259483408
0.002054032752579937
-0.009320081961447098
0.011433689104286873
-0.0013264285142506305
0.0013860175944712676
-0.0070256507598052175
0.00023008442567104103
-0.005039612712805067
0.011674835338845436
-0.0076118696446099785
-0.0005201471201437293
-0.008048837455113388
0.011604662111347969
0.00961308338197784
-0.0036960656009625875
-0.002554864915889566
0.01040691419301979
0.0007007087636025118
-0.006890674553915599
0.008196373304742587
-0.007743923274716975
-0.008514696566971099
0.008714736338983266
-0.0002975130735892782
0.007002755512805693
-0.014436955452106166
-0.005723443276384294
-0.00116348567083778
0.004985284789492636
0.014623208223087464
0.0028823373980930113
0.010332184394908331
0.0009450454271229139
0.008736775645874552
-0.0008649486152385161
-0.0075868884995640515
-0.00301804591257056
-0.006593251495892832
0.0010685740682000514
0.007943132477818846
0.0019371235620288228
-0.0014428257249063238
0.008950458987716474
-0.0006229421812047903
-0.006940420914089978
-0.006585985345483054
0.00035736771004871073
0.007732418645599118
-0.00145170388335069
-0.0015623939853959983
0.000600628415588661
-0.005019247211621634
0.0023001919782122348
-0.001549608998448674
-0.002006928644137626
-0.0006304195057750036
0.0025055949792987045
-0.0003700561804245995
0.0005461982888229344
-0.00310340746791865
-0.006793670436507313
-0.00018983601792591786
0.0014435123613655936
0.007639929983491579
0.012016967874581029
0.00046447328404043654
-0.0003764610195813408
-0.0013577776749865843
-0.00022203809984236536
-0.0010108206708443006
0.0016085653330927892
-7.183108994953885e-05
0.0025168181426202967
-0.0009626224712583238
0.00020669317108520138
0.0009528400634399476
0.0022243760074405284
0.007658917420994916
-0.006167386002437518
0.001272480672917639
0.011478208095209688
0.00021779026738502394
0.0019327457957613592
0.002220783864257252
0.0008594413236089328
0.0030167730752697543
-0.003136890405088063
0.004000158230735515
-0.006600033028406759
0.007758331046540115
0.001072554376988982
0.003699997588105329
0.0016970514819730836
0.005616992266278997
-0.00022657812216776165
0.0005001190238295882
0.011414666704185606
0.007847253022214328
0.000620218891309767
0.006359222511533555
-0.006449309775848142
0.007006154816476241
-0.0029561315710139296
0.00805528009060564
-0.006288572174902729
0.0006978499939468486
-0.0009229790424072155
0.0009224944812071109
-0.0061722677276455145
0.008187068253080436
-0.006350910402796867
0.0011748560883750904
-0.01116223169876858
0.0015701401422505733
-0.007403358717804235
0.008385141644690284
-0.006117332226041623
0.001974950530546378
0.001994757061579722
0.00895961185329834
-0.00932393935530078
0.0025872510011317033
-0.0016843887794922108
0.002642374591250316
-0.006044810145840626
0.009305820280666989
0.0016119466367529307
0.0025039386722743055
-0.010709255100156228
0.009885649340881245
0.008533245559911012
0.0025544944274349594
-0.006046059252418881
0.010212692538966235
-0.0069059489123330835
0.002693896290338737
-0.006075243215052887
0.010630004465500022
-0.0013294949879164527
0.002718978241445377
-0.008640750225215944
0.010707892318718586
-0.006149247540267703
0.002559217083234578
-0.006197485090424631
0.011012336888980049
-0.007512802696258964
0.0022200639535923925
-0.006413232427784389
0.0110549726144983
-0.003486900408777341
0.0017734876196630791
-0.008343131205189796
0.011422511290334296
-0.0012511856103563752
0.0011645231148939082
-0.006862245469785841
7.308809564298845e-05
-0.00240108031879494
0.0116555341047729
-0.007295497589014604
-0.0006151931316351879
-0.007719588957774767
0.011573847316898799
0.005107221741160807
-0.0037260350260133746
-0.0024517198148621073
0.010353630025689712
0.0010177133734922833
-0.006983125164134755
0.008254694221435573
-0.007866745951147797
-0.0034154964270079195
0.008626584185430644
-0.00019802786688268917
0.0068738086760318715
-0.007746427798326683
-0.005836854820590479
-0.0010715646188653304
0.004827775179631377
0.008717326778510578
0.002715070317607219
0.009644403575508581
0.0007867859843553796
0.0088980997016447
-0.0009997373286248683
-0.007185243852940003
-0.0031314124369090516
-0.006634487896552305
0.0010503667807440537
0.007987989923451705
0.0023515246383814608
-0.0011851688849553342
0.008869196966000678
-0.0013837853951899097
-0.006943523913710754
-0.006303773726564779