# vtk DataFile Version 1.0
GRUMMP topologically 2D mesh
ASCII

DATASET UNSTRUCTURED_GRID
POINTS 4142 float
  0.9902132100051211  -0.0013897599745845   0.0000000000000000
  0.9878682672001325  -0.0017209544766007   0.0000000000000000
  0.9922830260938109  -0.0010965337451688   0.0000000000000000
  0.9852627687065505  -0.0020876945602550   0.0000000000000000
  0.9824126515147726  -0.0024873693035198   0.0000000000000000
  0.9941016532545700  -0.0008382294190312   0.0000000000000000
  0.9793229395886266  -0.0029189889321549   0.0000000000000000
  0.9759912936709813  -0.0033826574903297   0.0000000000000000
  0.9957253756688895  -0.0006072067599891   0.0000000000000000
  0.9724158418644283  -0.0038783672872607   0.0000000000000000
  0.9972114818934485  -0.0003956828894990   0.0000000000000000
  0.9685983419668763  -0.0044053177853816   0.0000000000000000
  0.9986172604849257  -0.0001958749290171   0.0000000000000000
  0.9645418982154840  -0.0049624143705746   0.0000000000000000
  0.9602493276520160  -0.0055486932126648   0.0000000000000000
  1.0000000000000000   0.0000000000000000   0.0000000000000000
  0.9557225436143375  -0.0061636003738353   0.0000000000000000
  0.9986172604763917   0.0001958749302285   0.0000000000000000
  0.0136778115501445  -0.0198442283865115   0.0000000000000000
  0.9509632892996972  -0.0068066585239019   0.0000000000000000
  0.0111799405480040  -0.0180409152078963   0.0000000000000000
  0.9972114818757430   0.0003956828920181   0.0000000000000000
  0.0164236219435115  -0.0216216850259729   0.0000000000000000
  0.9459737546847580  -0.0074771440326796   0.0000000000000000
  0.0194159763686392  -0.0233724637256901   0.0000000000000000
  0.0089312659290954  -0.0162123970812813   0.0000000000000000
  0.9957253756403164   0.0006072067640564   0.0000000000000000
  0.9353156997544615  -0.0088958032333210   0.0000000000000000
  0.0226532123065557  -0.0250954152174871   0.0000000000000000
  0.0261336316774566  -0.0267893559859237   0.0000000000000000
  0.0068429846519911  -0.0142695304151425   0.0000000000000000
  0.9237713702124288  -0.0104115615140689   0.0000000000000000
  0.0298554003449755  -0.0284531869488138   0.0000000000000000
  0.9941016532123735   0.0008382294250309   0.0000000000000000
  0.0050308200222286  -0.0123013782195995   0.0000000000000000
  0.0012596550434314  -0.0062543845982477   0.0000000000000000
  0.9113626015789812  -0.0120184565864932   0.0000000000000000
  0.0338165365583016  -0.0300859006297539   0.0000000000000000
  0.0005600587198625  -0.0041872521188657   0.0000000000000000
  0.0034956879705714  -0.0103096477045821   0.0000000000000000
  0.0380150486067802  -0.0316864834866382   0.0000000000000000
  0.0001400674572995  -0.0020989425108620   0.0000000000000000
  0.0424489169588349  -0.0332538061244847   0.0000000000000000
  0.8981160449036193  -0.0137076729882106   0.0000000000000000
  0.9922830260341767   0.0010965337536290   0.0000000000000000
  0.0022384105171692  -0.0082946477552229   0.0000000000000000
  0.0000000000000000  -0.0000000005380880   0.0000000000000000
  0.0471161050109934  -0.0347866680569130   0.0000000000000000
  0.8692172420003259  -0.0173025512123363   0.0000000000000000
  0.8840586048664243  -0.0154712341935952   0.0000000000000000
  0.8536242589802903  -0.0191927756559575   0.0000000000000000
  0.0520144653095357  -0.0362838744017245   0.0000000000000000
  0.9902132099234322   0.0013897599861408   0.0000000000000000
  0.0001400673054027   0.0020989413744649   0.0000000000000000
  0.0005600583994229   0.0041872509286527   0.0000000000000000
  0.0089312642537700   0.0162123956290166   0.0000000000000000
  0.0068429832427153   0.0142695290019493   0.0000000000000000
  0.0022384098100130   0.0082946464730838   0.0000000000000000
  0.0034956870455263   0.0103096463775504   0.0000000000000000
  0.0050308188630767   0.0123013768482443   0.0000000000000000
  0.0111799386902237   0.0180409137864515   0.0000000000000000
  0.8373107726191357  -0.0211334926288444   0.0000000000000000
  0.0624935355792051  -0.0391666954139108   0.0000000000000000
  0.9878682670932252   0.0017209544916756   0.0000000000000000
  0.0136778095139640   0.0198442269960848   0.0000000000000000
  0.8203090273240524  -0.0231167391866414   0.0000000000000000
  0.0738633143603066  -0.0418930499584099   0.0000000000000000
  0.8026551811301268  -0.0251343400368426   0.0000000000000000
  0.9852627685719384   0.0020876945791685   0.0000000000000000
  0.0861021386417074  -0.0444536409739349   0.0000000000000000
  0.7843840873894279  -0.0271778197795966   0.0000000000000000
  0.9824126513500548   0.0024873693265746   0.0000000000000000
  0.0991843265815398  -0.0468392532814141   0.0000000000000000
  0.0164236197329729   0.0216216836667636   0.0000000000000000
  0.7461418339277840  -0.0313078737465108   0.0000000000000000
  0.9793229393907722   0.0029189889597428   0.0000000000000000
  0.1130825286139299  -0.0490420520078216   0.0000000000000000
  0.7058944105034720  -0.0354399888107516   0.0000000000000000
  0.1277704618123611  -0.0510562827506626   0.0000000000000000
  0.1762568929815641  -0.0559042078350805   0.0000000000000000
  0.0194159739879911   0.0233724623981675   0.0000000000000000
  0.6639684116827792  -0.0395008026994765   0.0000000000000000
  0.1937838883744062  -0.0571083155282771   0.0000000000000000
  0.9759912934368556   0.0033826575228533   0.0000000000000000
  0.2119350336566717  -0.0581032139582273   0.0000000000000000
  0.1432165586985055  -0.0528747491799113   0.0000000000000000
  0.1593891568184451  -0.0544918670991958   0.0000000000000000
  0.0226532097601106   0.0250954139222151   0.0000000000000000
  0.6207078411914361  -0.0434191082996254   0.0000000000000000
  0.5764634620046084  -0.0471137377839725   0.0000000000000000
  0.9724158415910057   0.0038783673250912   0.0000000000000000
  0.2306739249637577  -0.0588890260835713   0.0000000000000000
  0.0261336289695199   0.0267893547234291   0.0000000000000000
  0.5315950381341085  -0.0505057454921963   0.0000000000000000
  0.4864703588817339  -0.0535094604401647   0.0000000000000000
  0.4414549182767121  -0.0560390634426787   0.0000000000000000
  0.9685983416513994   0.0044053178288238   0.0000000000000000
  0.2697570606452168  -0.0598365819607799   0.0000000000000000
  0.3969170552729402  -0.0580119076690758   0.0000000000000000
  0.0298553974799863   0.0284531857194991   0.0000000000000000
  0.9645418978552561   0.0049624144199126   0.0000000000000000
  0.3107174127482247  -0.0599745523566999   0.0000000000000000
  0.3532197168655907  -0.0593474025151865   0.0000000000000000
  0.9602493272443249   0.0055486932681955   0.0000000000000000
  0.0338165335406938   0.0300858994339835   0.0000000000000000
  0.0380150454409591   0.0316864823247920   0.0000000000000000
  0.9557225431564565   0.0061636004358678   0.0000000000000000
  0.0424489136491938   0.0332538049970267   0.0000000000000000
  0.0471161015618897   0.0347866669642923   0.0000000000000000
  0.9509632887889385   0.0068066585927330   0.0000000000000000
  0.9459737541185675   0.0074771441085412   0.0000000000000000
  0.0520144617255517   0.0362838733443521   0.0000000000000000
  0.9353156990700551   0.0088958033238094   0.0000000000000000
  0.0624935317401540   0.0391666944281135   0.0000000000000000
  0.0738633102849253   0.0418930490455120   0.0000000000000000
  0.9237713694002159   0.0104115616199952   0.0000000000000000
  0.0861021343485112   0.0444536401350998   0.0000000000000000
  0.9113626006299211   0.0120184567085017   0.0000000000000000
  0.0991843220904188   0.0468392525175462   0.0000000000000000
  0.8981160438094651   0.0137076731266115   0.0000000000000000
  0.1130825239435962   0.0490420513187447   0.0000000000000000
  0.8840586036192291   0.0154712343488011   0.0000000000000000
  0.1277704569818227   0.0510562821360933   0.0000000000000000
  0.8692172405930260   0.0173025513845012   0.0000000000000000
  0.1432165537277111   0.0528747486397878   0.0000000000000000
  0.8536242574066383   0.0191927758449732   0.0000000000000000
  0.1593891517258480   0.0544918666322352   0.0000000000000000
  0.8373107708732270   0.0211334928345504   0.0000000000000000
  0.1762568877862003   0.0559042074398506   0.0000000000000000
  0.8203090254010921   0.0231167394087162   0.0000000000000000
  0.1937838830953411   0.0571083152030304   0.0000000000000000
  0.2119350283118140   0.0581032137003017   0.0000000000000000
  0.8026551790260408   0.0251343402747870   0.0000000000000000
  0.2306739195716207   0.0588890258904683   0.0000000000000000
  0.7843840851007032   0.0271778200327233   0.0000000000000000
  0.2697570552113356   0.0598365818878674   0.0000000000000000
  0.7461418312636445   0.0313078740273454   0.0000000000000000
  0.3107174073396524   0.0599745523895525   0.0000000000000000
  0.3532197115457904   0.0593474026374948   0.0000000000000000
  0.7058944074605978   0.0354399891145804   0.0000000000000000
  0.6639684082655058   0.0395008030201497   0.0000000000000000
  0.3969170500997217   0.0580119078642495   0.0000000000000000
  0.6207078374111498   0.0434191086291270   0.0000000000000000
  0.5764634578798972   0.0471137381129498   0.0000000000000000
  0.5315950336908907   0.0505057458089039   0.0000000000000000
  0.4864703541532008   0.0535094607315534   0.0000000000000000
  0.4414549133024901   0.0560390636939180   0.0000000000000000
  0.9901595609719056  -0.0023783411927147   0.0000000000000000
  0.0326649145266362  -0.0334200843455863   0.0000000000000000
  0.9878329678703356  -0.0027145673674890   0.0000000000000000
  0.0733998606732272  -0.0440344159407381   0.0000000000000000
  0.9922372924577029  -0.0020726951087579   0.0000000000000000
  0.8846838814295012  -0.0208009306521702   0.0000000000000000
  0.9852539181750185  -0.0030832573491977   0.0000000000000000
  0.8205556230767344  -0.0253024477924150   0.0000000000000000
  0.9824277530968584  -0.0034836508822686   0.0000000000000000
 -0.0022154120548041  -0.0049277430541563   0.0000000000000000
[...]
POINT_DATA 4142
SCALARS continuity float
LOOKUP_TABLE default
-0.0015445483859884697
-0.001503056018829787
-0.0018046120155163232
-0.001375835933420241
-0.001302610566165093
-0.001340234478191816
-0.0012270441479452676
-0.0011600376330750217
-0.002726241353572829
-0.0010782953834086793
-0.0028729297345902686
-0.0010275079414577598
0.06311534218419736
-0.0009447777380657018
-0.0008934082283246998
0.01331233076079356
-0.0008282247632662868
0.05652377425991288
0.009654569518931063
-0.0007152360034497069
0.010534015040926298
-0.002825915905409363
0.008680417255855522
-0.0007095364428407035
0.007666445348661721
0.011275110868710638
-0.004741505090621045
-0.000543983049128617
0.006715065321949539
0.005798851466470037
0.01163048129917601
-0.00047031568497256756
0.004945188689959835
-0.0026046222561642222
0.01150899237653644
0.0064981929416190135
-0.0003574047342689533
0.004150581002030633
0.003446399975603657
0.010654024543627088
0.0034111738886691565
9.763502245741516e-05
0.0027475263546327374
-0.000133186867273718
-0.0025512746141265396
0.008977626891026397
-0.002684529594230338
0.0022453571834228714
0.00044703046576918457
0.00015600556431598665
0.0008687502849560654
0.0014870616283734197
-0.002185323883672725
-0.00504156099555687
-0.003558789539249694
-0.0019585686389164015
-0.0028069703440886796
-0.008850611299517516
-0.002970408078932573
-0.0031342989662812336
-0.0009389557340972885
0.0012067980773512797
0.0007825982531201879
-0.0019620687574534255
-0.0002079821868139827
0.0016611987557828413
8.01237946749118e-05
0.002037622307185626
-0.0017869612502486043
-0.00015605118686712061
0.002438069776322417
-0.0016194293152550232
-0.00030783420090012216
0.0003517488837166198
0.0031941855300726507
-0.001525081874706201
-0.0004072939550559522
0.004300110780492381
-0.00046921368862295896
-0.0003942398771466035
0.000786872972387716
0.005438127297553877
-0.00019702225088094098
-0.0014610230768355341
-7.27073119921288e-05
-0.0004999870806158498
-0.0004899050241508999
0.001095910142090686
0.006475200227510113
0.007280701760229594
-0.0014298421180681709
-0.00022920337019111619
0.0012669827305806954
0.007601864543501197
0.007146767536896985
0.005789275332280838
-0.0014076179975735467
-0.0004956875171562388
0.0037980872334170044
0.001328367756960705
-0.0014231470395859314
0.00021877899677773434
0.001754380737410044
-0.0014299006599254112
0.001276102118388492
0.0011265323020270754
-0.0015014356557257011
0.0008899118282653887
0.0006698314375689138
-0.0015376325813724664
-0.0015716146103021593
3.7235940464817044e-05
-0.0016646652664189454
-0.0005159835247997684
-0.0011401181292151072
-0.0017358638309551378
-0.0015127069694308914
-0.0018874792145549895
-0.00201136490384691
-0.0018655040856249475
-0.0025895273847466433
-0.0018931003782824201
-0.0031784567294182715
-0.0016744015893514303
-0.003744416379680443
-0.0016127488865613168
-0.004254987135194116
-0.0013078254914960369
-0.004663575902577708
-0.0012133455711540492
-0.00495344680319091
-0.005272735385953849
-0.0009408053625241721
-0.006174544183735779
-0.0009876378449645415
-0.00691157010959628
-0.0006228317990556058
-0.006349356988561993
-0.004626770413173256
2.557428082207719e-05
0.0006897786591883836
-0.002394486169141719
0.0013169940456462875
0.0017221391652240733
0.0017790214724579946
0.0011810147027381509
-0.00027436544803066096
-0.0015325820636934214
0.001051048556766919
-0.001554774392317967
-0.0005783685214544017
-0.001982481526924935
-3.2158419197285e-05
-0.0014247277650701762
0.0015735445256905816
-0.0013565604236335323
0.0031877169933682576
-0.0008766375715312494
-0.0030893078194637854
-0.0012818941344203587
-0.0013438017568924853
-0.0012138380292264078
-0.002027882031988304
-0.005191158688011498
0.00843210345304311
-0.0011328947549606265
5.244255019012664e-05
0.00043962256851338386
0.00025193690381138996
-0.0010823082485738626
0.0011209438828969727
-0.01666265746126728
0.0005333708605685117
-0.0010004012945076053
-0.0036743531096483225
-0.0009496953766604551
-0.0025396428315585273
0.008574212555037165
0.006927659392955076
0.004708064200709256
0.001910436111856376
-0.001292936388228571
0.0019742117840804135
0.005422354393045735
-0.0008844415827091762
-0.0042726819625900974
-0.01927228178226272
0.0009083364244780545
0.007935216435461148
-0.004004440026506445
-0.0007768113312806751
-0.0011038970280602865
0.008421023138351365
-0.006930415046285693
-0.0015196016662065595
0.00011811628782634111
0.007289238610244086
-0.004490650168815364
-0.0007606786499167298
0.0038031846077371417
0.006547551458067269
-0.004192045844234397
0.008758315602190083
-0.00025068319048478606
-0.006278271110690392
-0.0042658076870396916
-0.0006070107554000325
-0.0007250822968531564
0.005803140416837499
-0.0029924317387887756
0.0050494757108685085
-0.002578551243104953
0.00879575002864694
-0.0022297426865006127
-0.0005352410764122258
0.005968373276518807
0.00431653665654866
0.00048451098471878824
-0.0021314071672774554
0.007171347380134258
0.008500197164809428
0.0007847972984881207
0.004560647929047205
0.006851306394963501
-0.00042142274348950013
7.346012550905599e-05
0.003610408829415402
-0.001072227131948808
0.0022796111094497743
0.00036365472684616164
0.007723821548290627
0.00485247243786429
0.0029428989484843768
0.0012726655807362378
-0.0004355877455722868
-8.518817106011617e-05
0.002327827534781856
-0.001328961040927083
-0.00019740136668895995
-0.0026009492509949054
-0.002606064166565092
0.0070275805765355305
0.006422752318398373
0.00032188723078353874
-0.0026939109835408667
-0.0027029507863538995
0.0019116295605189355
-0.0009115047508572605
0.0003844438902846568
-0.00021375567128756367
9.13833170244403e-05
3.380610784002736e-05
0.0008075656477789742
0.001560536530380344
0.0011033035641065342
-0.00031584491546088957
-0.0021680757801884245
0.0007515782544861643
-0.005022962233073163
0.000739712111652974
-0.0063847911719918885
0.002045203618731388
-0.005628926944706961
0.0029681158714787233
-0.006728137405992381
0.008077823897567437
-0.010363028327705122
-0.0007283027490683134
-0.006260650466477028
0.003200796329331386
-0.006787081895256897
-0.0005354994471597444
-0.004299392292428442
0.002584093063498521
0.0011457748424002342
-0.0022406759234869255
0.0005109509344195371
-0.0004371035440682335
-0.00198258047087135
0.00020654759831589923
-0.003091521978147581
0.0053535692895572695
0.0015991243382803425
-0.0026157064589370184
-0.00018361372881446484
0.008474191738396987
0.0019582694231500904
0.0010739630130155089
-0.0018164250517438481
-0.002602969820653549
-0.00039355286772718305
-0.003766296833721639
0.0023957969938885686
0.003142103164374714
-0.0016553680742690073
-0.0026132224628895996
-0.0005205787700226095
-0.0005519836715996256
-0.002058857920323581
-0.0017048557679612078
0.0031254959653267815
0.008328220610704071
-0.0015632524867768662
0.00030050947307591315
-0.0006006226083593954
0.0037212234676259033
0.004237256686224681
-0.0021471912780750705
-0.0006471353269351363
0.004334683532543821
-0.0005430550991014451
0.00014279840308817953
-0.0011872577623791823
-0.0006255405394830229
0.005374389771362778
-0.005175572398969119
-0.00034048637107782974
-0.0057453711345274334
-0.001500983970246289
0.008222249160642998
-0.00020618363196344932
0.007871810816736937
-0.0006653436980343123
-0.003184390471414828
-0.0006452732153687934
0.004980448636212475
-0.000507379636487737
-0.0017954588287477412
0.006406478886930105
-0.0007845762803013895
0.007208788886819208
-0.0024993378310212834
-0.0014713121762662523
0.0056941004124649525
-0.00037183109700601903
0.00309178116960132
-1.4693946278982286e-05
-0.0017577004044948327
0.007525418394894913
-0.0013693289026168877
0.007064467307892152
0.007155411123199226
0.005698168292324874
-0.00013697752348260263
-0.0014469310368656221
-0.0007978600854612169
-0.0006190944952588764
0.001074442819196706
0.003698349575113248
0.006431642829070129
0.0002984438058060337
0.0013186417337807516
-0.001462445267773926
-0.02398127498235647
9.893498263916167e-05
-0.0010030859419316901
0.001642654768146383
-0.0009093919582003352
-0.0014694999735936185
-0.0005700743738954948
0.0004633542159093434
-0.0009740792601830504
0.0004802050605896091
-0.0020638141636496526
-0.0015421692165315623
-0.0010252652134254854
0.0003656546469030168
-0.0005347494309343042
0.0002564868572540491
-0.014602115304561162
-0.0015825964201209273
-0.001168334225311928
-0.0016104593034110368
-0.0011084693074785235
-0.00026530982277016757
0.0005555089511646563
-0.0017124201412692024
-0.0011653736037137452
-0.0007228240805964004
0.0015255386449818244
-0.0012854724603734676
-0.0011569569908392592
-0.0017837772218690941
0.005086724217717815
-0.0016057896869208495
-0.0034133377186309675
-0.0019362343024296217
-0.0014694268169909615
-0.0020674858805278277
-0.0012396633993043062
-0.0019150562953999483
5.344049772347134e-05
-0.002624070647179928
-0.001306879278768216
-0.0019415992764524282
0.0018889106188394822
-0.0032002146288676045
-0.0015152519377133506
-0.0017223997044487481
0.009118890553567186
-0.0037609251831196865
-0.0013803664809403668
-0.0016588798995478742
-0.0019229472079854632
-0.004271375836010763
-0.0014451286209516115
-0.001353900705245232
-0.0012759930372699187
-0.004681827289576792
-0.001945700856084299
-0.001259500306487447
-0.0014797330114583811
-0.004979427320597019
-0.0015771808682244592
-0.005315004376388694
-0.002665777327001141
-0.0009957509283769772
-0.0015949798747361698
-0.006188219753552201
0.002323878888811631
-0.0010234264714438191
0.0031975097669267325
-0.0069583617624671855
0.003952318011904098
-0.0006718969705738892
0.004500573520151072
-0.006400149038600049
-0.0017813597225757034
-0.0046792058361857375
0.006686455628882433
-1.8137954148796193e-05
0.0024809891674459207
0.0006472219167906042
0.005684810843212572
-0.002444698083541848
-0.0014220687202440012
0.0012725687024936446
0.006876432472768304
0.0016773288521806096
-0.002428122585378087
0.0017325724450504606
-0.0026334614596217653
0.0011336313912534489
-0.0011174640380911393
-0.00032200592251799905
0.005362658374997431
0.001938554587981409
-0.00041849552444485545
-0.0018628855532468564
-0.00047258210214964517
-0.0007299162380656176
0.0006671119376181117
0.002372027314901219
0.005350304939511506
-0.00170956512943604
0.0027734386682654105
-0.0008010933858794905
0.00908298054629435
-0.002504157947979579
-0.001913110349453925
0.0031025652167100425
-0.0025451947095488526
-0.0016261111713511934
0.0013735296430523302
-0.0008305885304954947
0.0016777579213022482
0.004209495790821866
-0.0023286424916723076
-0.0008363804517506898
-0.0005868684545361575
-0.0006665615680706688
0.0029999086003957036
-0.00192934191363695
0.00911593270582087
0.00534536592911373
-0.0023035550585304362
-0.0004518854620732212
0.002440989622155684
-0.0015667980386792177
0.0007490726631408941
-0.0003031632409963339
0.0033592827633200603
-0.0008234532880194079
-0.003271456748311104
-0.0007812866532203223
-0.0006578530601978311
-0.0014022755891653178
-0.0026156159099192337
0.006375064893733616
-0.004258907929120005
0.007174504675441112
0.0004463267314090153
-0.0015384636364494007
0.008685038375086523
-0.00046879018635743124
0.002625304597187464
-0.0009706454126754494
0.004411184053982057
0.007483297547674112
0.002248644344428708
0.007012336103241398
-0.000815158204829472
0.005631773742511627
-0.00046696998878090716
-0.0015138116108340872
0.005591354040478007
-0.0007082127044405997
-1.0275576863368714e-05
0.003615029568786729
-0.00217149204890031
-0.0006524820263373349
-0.0036676816400022173
-0.001529350299112568
0.007820928162422717
6.446193164576977e-06
0.007264485571919432
0.0015485199097349752
-0.0008279384133279842
-0.0015324615889247088
-0.002550679619621166
-0.000443127288674521
0.0067556790501795885
-0.00037625913427614044
-0.0021391793013352408
-0.0016014740947360023
-0.008658455227807197
-0.00039761376927165614
-0.0014252173322761212
-0.0004006454607104388
-0.0009416875616362238
-0.0016364198886373036
0.0025496532935457656
-0.0016638054452869535
-0.0010048518883757236
-0.0009054969957737219
0.0012006524264871763
-0.0017608774416979643
-0.0010514954996872258
-0.0012181301136488345
-0.0002872656007559685
-0.0016987958420214507
-0.007436831464589351
-0.0018262517482882494
0.0009977359218606235
-0.0019456631078662407
-0.0011336361710895704
-0.0019749984254838304
0.0038616297502937244
-0.002332133913050444
-0.0006748773261154087
-0.001950919668511408
-0.002318617346021098
-0.0028240155747666007
-0.0011791747311895298
-0.0019786144900210065
-0.0007534086698230236
-0.0033523043037723015
-0.0031341751027928874
-0.0017599266980287446
-0.002161100750138876
-0.0038790490735057864
-0.001257901689091972
-0.0016992711686691327
-0.0006384453385117041
-0.004368046222960359
-0.0013203241640446753
-0.0013959477540024345
0.0017269996358956169
-0.0047675373709144065
-0.00150149228981149
-0.001301587385442029
0.0004027437713309414
-0.005050741233570181
-0.0013887638754998231
-0.005367416158067229
0.001448294045650196
-0.0010338129664005393
-0.001442682409371681
-0.006252392220551978
0.004363249162751789
-0.0010623260318094953
-0.00190136187148281
-0.0070276029508456765
-0.0027183358474614193
-0.0007092405585585642
-0.0015718917248339756
-0.0064894003346803895
0.0006233495505107016
-0.0047753787784743955
-0.0015810955941741723
-5.7690460494327184e-05
0.0018110472879308657
0.0006064515930301018
0.004323703980344875
-0.002528983795492354
0.008169507104094321
0.0012334657238881643
0.005202719578064835
0.0016353258258179194
-0.0020365351466942673
0.0016878516135017893
0.004577079323001168
0.0010792714974801696
0.0014760325109322264
-0.0003897484303169058
0.0033414275375409303
-0.0006465451555191732
0.0030574490173334145
0.004123987946567671
-0.0017107824110770638
0.009537681679562985
-0.001338161313082371
-0.0024489926254040507
0.004162483523454095
0.003745203756458246
-0.0012481160934741636
0.0001605584237852835
-0.0008987910665038907
0.005047677244178128
-0.001130774990990007
-0.0032934721924783176
0.005292428612108246
-0.0007177478928296567
-0.0006533460013014012
-0.003058540591165371
-0.0016602925170142685
-0.003967466421500109
-0.0004783799604996095
0.0009295364746628587
-0.0011563414843225068
0.009550109550279124
-0.0010559341711393801
0.004800022093996546
-0.0011628161344115315
0.00630356588685469
0.006317759281126583
-0.00021821526901244845
0.007107993955173341
0.0074847642585538785
-0.0016379295900739385
-0.0001787706826723538
-0.0006312533723515798
-0.00288198789623853
-0.0012011285673812896
-0.0031401159279036295
0.0074048862000753125
0.009151665034963855
0.006910305826171155
0.006019262637621764
0.005499077318005406
-0.0008820135037134544
-0.001614603869750457
-0.002552639242905706
-0.0008698579942141723
0.008440808613904385
0.0034485562591430492
0.0006878010476636523
-0.0012170160779156707
-0.009234058236984906
-0.0016325908106570371
-0.0013782238422732512
-0.00017252017247345152
-0.000996276365059724
0.0013647792396743266
0.0017774494723639084
-0.0016326756748389836
-0.001057795029342961
-0.0012382636177182711
0.0020001213143936237
-0.0012835699010212333
-0.0010991857568491022
-0.0017016388046660236
-0.0004608711031479777
-0.0013514968880773291
-0.005428743344766817
-0.0013994946660455421
0.0008786794584960267
-0.0017331727221166183
-0.0011816654790548775
-0.0017551675882470832
-0.00259819243655109
-0.0018281406876564036
0.005482202679454974
-0.0018518595484452772
-0.001611668437126559
-0.0021083655365800504
-0.0024021496287901386
-0.0024565703231495574
-0.0012165906401403208
-0.0019149562377062785
-0.0008698565651482903
-0.002598842351319115
-0.0023731439578570553
-0.002060889552681194
-0.00229119788375151
-0.0028752318270405834
-0.0012914996056830647
-0.0020344074402552223
-0.0007924356621139038
-0.0032613900349517874
-0.0013462491655514997
-0.0020616659340521736
0.002934997373873809
-0.0036975161316368044
-0.0016788924824996177
-0.0018438577616436565
0.0002456107641235006
-0.004149349929725021
-0.0014082078725877775
-0.0017848951932758171
0.0013309866396656342
-0.00458123505759384
-0.0014573415940462835
-0.0014806777360885349
0.0034086696043056225
-0.0049391124850246436
-0.0018464605667249802
-0.001387730427058345
-0.003334323934470688
-0.005192704696953206
-0.0015899801822927039
-0.005486604740968872
-0.0002888229262182293
-0.0011179391755783317
-0.001618064525573853
-0.0063695541881908764
0.0016951078644291862
-0.0011445968155212988
0.0009249203374545139
-0.007172418078824986
0.006842800790731639
-0.0007874880233578995
0.0023086328243599186
-0.006670571047828458
-0.002206293509587118
-0.004967935878464011
0.0018930042995433805
-0.00013345595225832646
0.0034509440126853663
0.0005292006281475587
0.0010801853800027025
-0.0027017600410231568
-0.0036178681152399497
0.0011544392428543063
-0.00044723152310808823
0.001552413061893581
-0.002649455385210747
0.0015950450514789743
-0.0019181950524284792
0.0009671788923025303
0.0021389735532939777
-0.000531722955906574
-0.000873794418720502
0.004302619708485812
-0.0019038941098799065
0.005031257054826667
-0.0024393920799229032
-0.0025916915451894007
0.0019528571421942862
-0.0007495808823521496
0.002983132729525996
0.0027639237605169053
-0.0018495047551747843
0.008705278266678237
-0.002204670945251528
-0.0027358765828907417
0.004088170561051024
0.006085095312752734
-0.0019646097926620245
-0.00045442272797732567
-0.0012737431073816695
0.006994212158388181
0.0019104916819760306
-0.0035051845091596833
0.005211022654312166
-0.0008195781708062047
-0.0009611104226269733
-0.0012046356677845116
-0.001812006437022744
-0.0030795776122528656
-0.0007323779534411253
0.0004741260849940071
-0.0017387206233000388
0.008954995033637406
-0.0015232030141284476
0.0044844141088477485
0.0016402158999431569
0.0077293916748466295
0.006226779178881246
-0.0006452108793346474
0.007000948987735282
0.008320443245898932
-0.0018006896168663079
-0.0002454195419240229
-0.0008586746824049261
-0.0025029326813120517
0.0011755959635824317
-0.003153955961022404
0.007269144837727251
0.008932532765342043
0.006731325825028045
0.004867653179416039
0.005263646146355285
-0.0009752781621854446
-0.0017817875281944998
-0.0028054855797700756
-0.0011003665009689536
0.008704676653620808
0.0031625726782070775
-0.0023157065922048267
0.0006146026199718905
-0.004194529610647448
-0.0018051896287246075
-0.0017750197646415231
-0.0004491061816654038
-0.0010932738777275233
0.0010584176314634842
0.001001257297155009
-0.0018025590962306903
-0.0011500160306121131
2.2751743321124978e-05
0.0015415640071804056
-0.0005754545033276396
-0.0011819784520244077
-0.00187102590797073
-0.0005473326482107294
-0.0011198005086603478
-0.0027452105219642644
-0.0016023691163122586
0.0007254042821316629
-0.00190318777786978
-0.0012662506053473432
-0.0022743161095290705
0.004639488466115572
-0.0020134160766001165
-0.0012747507256875288
-0.0028130067737115547
3.4262914879606106e-05
-0.0031791463244029753
-0.0012878749584756095
-0.00206832229388447
-0.0002489435624092798
-0.0033323884693296285
-0.001935060050247126
-0.0022119027436881275
-0.002500857469223097
-0.0035636596024513426
-0.0013604521028273192
-0.0021801213458100357
-0.0009883982680113123
-0.0038678425233652468
-0.0014076927957830743
-0.002206812561795398
0.0025481773308915294
-0.004204126362971874
-0.0016420613469322793
-0.0019883657727535796
0.00020520357704338667
-0.004559096022497823
-0.001459628526939592
-0.0019314576317311725
0.0011825341395661282
-0.004904829100868505
-0.0014932094077486928
-0.0016261663025141048
0.002488472575075037
-0.005191757412771058
-0.0017956685015471708
-0.0015322600268996393
-0.0016091881141940612
-0.005391030439922179
-0.0016166288608351592
-0.005648128988503535
0.0023494787851713744
-0.0012592076982813783
-0.0016354903362444907
-0.006522537153162702
0.0015453682001863747
-0.0012812705454347381
0.0006573276723234615
-0.00737602899466036
0.00562377353605061
-0.0009172422986301762
0.0013427999406242861
-0.006954412280667669
-0.00242575692886026
-0.005292247962478674
0.0011724626813314932
-0.00025986641174892666
0.0027987619430115914
0.0004024048458453386
0.00046708315790087166
-0.003008877663202285
-0.0028250387339495498