# vtk DataFile Version 1.0
GRUMMP topologically 2D mesh
ASCII

DATASET UNSTRUCTURED_GRID
POINTS 4142 float
  0.9902132100051211  -0.0013897599745845   0.0000000000000000
  0.9878682672001325  -0.0017209544766007   0.0000000000000000
  0.9922830260938109  -0.0010965337451688   0.0000000000000000
  0.9852627687065505  -0.0020876945602550   0.0000000000000000
  0.9824126515147726  -0.0024873693035198   0.0000000000000000
  0.9941016532545700  -0.0008382294190312   0.0000000000000000
  0.9793229395886266  -0.0029189889321549   0.0000000000000000
  0.9759912936709813  -0.0033826574903297   0.0000000000000000
  0.9957253756688895  -0.0006072067599891   0.0000000000000000
  0.9724158418644283  -0.0038783672872607   0.0000000000000000
  0.9972114818934485  -0.0003956828894990   0.0000000000000000
  0.9685983419668763  -0.0044053177853816   0.0000000000000000
  0.9986172604849257  -0.0001958749290171   0.0000000000000000
  0.9645418982154840  -0.0049624143705746   0.0000000000000000
  0.9602493276520160  -0.0055486932126648   0.0000000000000000
  1.0000000000000000   0.0000000000000000   0.0000000000000000
  0.9557225436143375  -0.0061636003738353   0.0000000000000000
  0.9986172604763917   0.0001958749302285   0.0000000000000000
  0.0136778115501445  -0.0198442283865115   0.0000000000000000
  0.9509632892996972  -0.0068066585239019   0.0000000000000000
  0.0111799405480040  -0.0180409152078963   0.0000000000000000
  0.9972114818757430   0.0003956828920181   0.0000000000000000
  0.0164236219435115  -0.0216216850259729   0.0000000000000000
  0.9459737546847580  -0.0074771440326796   0.0000000000000000
  0.0194159763686392  -0.0233724637256901   0.0000000000000000
  0.0089312659290954  -0.0162123970812813   0.0000000000000000
  0.9957253756403164   0.0006072067640564   0.0000000000000000
  0.9353156997544615  -0.0088958032333210   0.0000000000000000
  0.0226532123065557  -0.0250954152174871   0.0000000000000000
  0.0261336316774566  -0.0267893559859237   0.0000000000000000
  0.0068429846519911  -0.0142695304151425   0.0000000000000000
  0.9237713702124288  -0.0104115615140689   0.0000000000000000
  0.0298554003449755  -0.0284531869488138   0.0000000000000000
  0.9941016532123735   0.0008382294250309   0.0000000000000000
  0.0050308200222286  -0.0123013782195995   0.0000000000000000
  0.0012596550434314  -0.0062543845982477   0.0000000000000000
  0.9113626015789812  -0.0120184565864932   0.0000000000000000
  0.0338165365583016  -0.0300859006297539   0.0000000000000000
  0.0005600587198625  -0.0041872521188657   0.0000000000000000
  0.0034956879705714  -0.0103096477045821   0.0000000000000000
  0.0380150486067802  -0.0316864834866382   0.0000000000000000
  0.0001400674572995  -0.0020989425108620   0.0000000000000000
  0.0424489169588349  -0.0332538061244847   0.0000000000000000
  0.8981160449036193  -0.0137076729882106   0.0000000000000000
  0.9922830260341767   0.0010965337536290   0.0000000000000000
  0.0022384105171692  -0.0082946477552229   0.0000000000000000
  0.0000000000000000  -0.0000000005380880   0.0000000000000000
  0.0471161050109934  -0.0347866680569130   0.0000000000000000
  0.8692172420003259  -0.0173025512123363   0.0000000000000000
  0.8840586048664243  -0.0154712341935952   0.0000000000000000
  0.8536242589802903  -0.0191927756559575   0.0000000000000000
  0.0520144653095357  -0.0362838744017245   0.0000000000000000
  0.9902132099234322   0.0013897599861408   0.0000000000000000
  0.0001400673054027   0.0020989413744649   0.0000000000000000
  0.0005600583994229   0.0041872509286527   0.0000000000000000
  0.0089312642537700   0.0162123956290166   0.0000000000000000
  0.0068429832427153   0.0142695290019493   0.0000000000000000
  0.0022384098100130   0.0082946464730838   0.0000000000000000
  0.0034956870455263   0.0103096463775504   0.0000000000000000
  0.0050308188630767   0.0123013768482443   0.0000000000000000
  0.0111799386902237   0.0180409137864515   0.0000000000000000
  0.8373107726191357  -0.0211334926288444   0.0000000000000000
  0.0624935355792051  -0.0391666954139108   0.0000000000000000
  0.9878682670932252   0.0017209544916756   0.0000000000000000
  0.0136778095139640   0.0198442269960848   0.0000000000000000
  0.8203090273240524  -0.0231167391866414   0.0000000000000000
  0.0738633143603066  -0.0418930499584099   0.0000000000000000
  0.8026551811301268  -0.0251343400368426   0.0000000000000000
  0.9852627685719384   0.0020876945791685   0.0000000000000000
  0.0861021386417074  -0.0444536409739349   0.0000000000000000
  0.7843840873894279  -0.0271778197795966   0.0000000000000000
  0.9824126513500548   0.0024873693265746   0.0000000000000000
  0.0991843265815398  -0.0468392532814141   0.0000000000000000
  0.0164236197329729   0.0216216836667636   0.0000000000000000
  0.7461418339277840  -0.0313078737465108   0.0000000000000000
  0.9793229393907722   0.0029189889597428   0.0000000000000000
  0.1130825286139299  -0.0490420520078216   0.0000000000000000
  0.7058944105034720  -0.0354399888107516   0.0000000000000000
  0.1277704618123611  -0.0510562827506626   0.0000000000000000
  0.1762568929815641  -0.0559042078350805   0.0000000000000000
  0.0194159739879911   0.0233724623981675   0.0000000000000000
  0.6639684116827792  -0.0395008026994765   0.0000000000000000
  0.1937838883744062  -0.0571083155282771   0.0000000000000000
  0.9759912934368556   0.0033826575228533   0.0000000000000000
  0.2119350336566717  -0.0581032139582273   0.0000000000000000
  0.1432165586985055  -0.0528747491799113   0.0000000000000000
  0.1593891568184451  -0.0544918670991958   0.0000000000000000
  0.0226532097601106   0.0250954139222151   0.0000000000000000
  0.6207078411914361  -0.0434191082996254   0.0000000000000000
  0.5764634620046084  -0.0471137377839725   0.0000000000000000
  0.9724158415910057   0.0038783673250912   0.0000000000000000
  0.2306739249637577  -0.0588890260835713   0.0000000000000000
  0.0261336289695199   0.0267893547234291   0.0000000000000000
  0.5315950381341085  -0.0505057454921963   0.0000000000000000
  0.4864703588817339  -0.0535094604401647   0.0000000000000000
  0.4414549182767121  -0.0560390634426787   0.0000000000000000
  0.9685983416513994   0.0044053178288238   0.0000000000000000
  0.2697570606452168  -0.0598365819607799   0.0000000000000000
  0.3969170552729402  -0.0580119076690758   0.0000000000000000
  0.0298553974799863   0.0284531857194991   0.0000000000000000
  0.9645418978552561   0.0049624144199126   0.0000000000000000
  0.3107174127482247  -0.0599745523566999   0.0000000000000000
  0.3532197168655907  -0.0593474025151865   0.0000000000000000
  0.9602493272443249   0.0055486932681955   0.0000000000000000
  0.0338165335406938   0.0300858994339835   0.0000000000000000
  0.0380150454409591   0.0316864823247920   0.0000000000000000
  0.9557225431564565   0.0061636004358678   0.0000000000000000
  0.0424489136491938   0.0332538049970267   0.0000000000000000
  0.0471161015618897   0.0347866669642923   0.0000000000000000
  0.9509632887889385   0.0068066585927330   0.0000000000000000
  0.9459737541185675   0.0074771441085412   0.0000000000000000
  0.0520144617255517   0.0362838733443521   0.0000000000000000
  0.9353156990700551   0.0088958033238094   0.0000000000000000
  0.0624935317401540   0.0391666944281135   0.0000000000000000
  0.0738633102849253   0.0418930490455120   0.0000000000000000
  0.9237713694002159   0.0104115616199952   0.0000000000000000
  0.0861021343485112   0.0444536401350998   0.0000000000000000
  0.9113626006299211   0.0120184567085017   0.0000000000000000
  0.0991843220904188   0.0468392525175462   0.0000000000000000
  0.8981160438094651   0.0137076731266115   0.0000000000000000
  0.1130825239435962   0.0490420513187447   0.0000000000000000
  0.8840586036192291   0.0154712343488011   0.0000000000000000
  0.1277704569818227   0.0510562821360933   0.0000000000000000
  0.8692172405930260   0.0173025513845012   0.0000000000000000
  0.1432165537277111   0.0528747486397878   0.0000000000000000
  0.8536242574066383   0.0191927758449732   0.0000000000000000
  0.1593891517258480   0.0544918666322352   0.0000000000000000
  0.8373107708732270   0.0211334928345504   0.0000000000000000
  0.1762568877862003   0.0559042074398506   0.0000000000000000
  0.8203090254010921   0.0231167394087162   0.0000000000000000
  0.1937838830953411   0.0571083152030304   0.0000000000000000
  0.2119350283118140   0.0581032137003017   0.0000000000000000
  0.8026551790260408   0.0251343402747870   0.0000000000000000
  0.2306739195716207   0.0588890258904683   0.0000000000000000
  0.7843840851007032   0.0271778200327233   0.0000000000000000
  0.2697570552113356   0.0598365818878674   0.0000000000000000
  0.7461418312636445   0.0313078740273454   0.0000000000000000
  0.3107174073396524   0.0599745523895525   0.0000000000000000
  0.3532197115457904   0.0593474026374948   0.0000000000000000
  0.7058944074605978   0.0354399891145804   0.0000000000000000
  0.6639684082655058   0.0395008030201497   0.0000000000000000
  0.3969170500997217   0.0580119078642495   0.0000000000000000
  0.6207078374111498   0.0434191086291270   0.0000000000000000
  0.5764634578798972   0.0471137381129498   0.0000000000000000
  0.5315950336908907   0.0505057458089039   0.0000000000000000
  0.4864703541532008   0.0535094607315534   0.0000000000000000
  0.4414549133024901   0.0560390636939180   0.0000000000000000
  0.9901595609719056  -0.0023783411927147   0.0000000000000000
  0.0326649145266362  -0.0334200843455863   0.0000000000000000
  0.9878329678703356  -0.0027145673674890   0.0000000000000000
  0.0733998606732272  -0.0440344159407381   0.0000000000000000
  0.9922372924577029  -0.0020726951087579   0.0000000000000000
  0.8846838814295012  -0.0208009306521702   0.0000000000000000
  0.9852539181750185  -0.0030832573491977   0.0000000000000000
  0.8205556230767344  -0.0253024477924150   0.0000000000000000
  0.9824277530968584  -0.0034836508822686   0.0000000000000000
 -0.0022154120548041  -0.0049277430541563   0.0000000000000000
[...]
POINT_DATA 4142
SCALARS continuity float
LOOKUP_TABLE default
0.0002894257863004954
0.0002796346710926627
0.0003016085403462181
0.000278759451139428
0.00028434665040810323
0.0003551672145695519
0.00029585925930350547
0.00031114154452779473
0.00045792616714597777
0.0003289427451002569
9.173403486536847e-05
0.00035345262129095724
0.002541540527999935
0.00037819083172382456
0.00040787150228061545
7.963214137381793e-05
0.0004387159689760377
-0.0018785630782932878
0.009008677018684352
0.00046890982486385316
0.008882393331997687
-7.159687079417312e-06
0.009019444799534608
0.0005206041494161187
0.008937538677933043
0.008608563000094929
-0.0003892845956503356
0.0005929354280271739
0.008784030716441004
0.00857505351310852
0.008163571999169953
0.0006864292054285023
0.008324660039102582
-0.00026646632459461755
0.00749688888224078
0.004168351696891779
0.000779587114836872
0.008043478943511857
0.002669830660522669
0.006608254212900386
0.007741015630884142
0.0010534926589733573
0.007419010237195991
0.0008642551075511085
-0.0002190123019616256
0.005493121664430392
-0.0006098996450093999
0.007077776463027781
0.0010458589421049962
0.0009492420791592889
0.001120050858440803
0.006661710006881732
-0.00020435317935148017
-0.002142471377024301
-0.004485480561565211
-0.008988473624333903
-0.00866584521763443
-0.005981407078961637
-0.00737234609988931
-0.008143601888708796
-0.00915571937400341
0.0012301516393140551
0.006087866954026727
-0.0001938183747388665
-0.009181813264969628
0.001297434625671759
0.005445681228900031
0.001413402950546725
-0.0001909602389233185
0.0048184567085337564
0.0015223220595324948
-0.00019317400348737391
0.004232181578894914
-0.009099034396912896
0.0016622795772279835
-0.00020027565879389547
0.0036920744256505097
0.0017988674640511014
0.003203422625769575
0.0020701722815435098
-0.00893212795021039
0.001941840406063392
0.0018062572095642834
-0.00021276318873303791
0.0015993077270432614
0.002769524927939461
0.0023920994380740653
-0.008700803878396132
0.002067842587470382
0.0021527497006142214
-0.00022980502169510112
0.0014187040826619181
-0.008420844688545575
0.002181959342268453
0.0021447586483158833
0.0020358979225155414
-0.0002490937721003097
0.0013507992788113871
0.0018596550897651124
-0.008106377834117558
-0.0002733111328133286
0.0014413417439220048
0.0016414183039621458
-0.00029883857810983187
-0.007767116110613514
-0.007412214828948618
-0.00033100326854902787
-0.0070439591362920365
-0.006665374504149175
-0.0003647158566789524
-0.00040989734419094077
-0.006190546694929041
-0.00048249133359400635
-0.005568851604149617
-0.0048721579151445715
-0.0005638726140332806
-0.004203709019817569
-0.0006523856215631038
-0.0035842729691801718
-0.0007223302975085632
-0.0030180206934342347
-0.0008135098873363875
-0.0025093757922992
-0.000878166578498547
-0.0020608478538026507
-0.0009766495643713353
-0.0016734304812431942
-0.0010347045617764674
-0.0013462289050026023
-0.0011405494877646657
-0.0010817084283286462
-0.000877980627140935
-0.0011878410852818892
-0.0007019939597782783
-0.0013331675691271969
-0.0006584950593004875
-0.0014408668041503009
-0.0007834007343806877
-0.0010297324535013107
-0.0015321576408858471
-0.0016389556473498546
-0.0012979717668919458
-0.0017324369319876012
-0.0017803744229972459
-0.0017664337678157812
-0.0016824677372222379
-0.0015245748305661422
0.00029528470852218937
0.008530090430613759
0.00028226050640955925
0.005491583500404278
0.00029643045052207384
0.0010020187631923018
0.00028203326569122174
0.0013053936380396191
0.0002872043742671666
0.0023881219364833644
0.0003631777406418058
-0.009429250171333302
0.0002985235543964616
-0.0006398233773305024
0.000313566562357373
-0.0002043450070205254
0.0003427100456213338
0.0062619728675362115
0.00033102963415833554
0.006143491408077206
0.0002904321125839248
0.001096600263059656
0.0003552318974964907
0.0012386906137209933
0.00012440307209353693
0.008188871560399168
0.0003796056333816221
-0.0094057509331457
0.0004089894746500371
-0.00026248565773867864
0.0002303135641363916
7.616966167137192e-05
8.239862829751614e-05
0.000121335462995332
6.351417430303823e-05
2.9929534414261526e-05
0.00010672847860682595
0.00043967034293190496
-0.008243426230400155
-9.868413505071842e-05
0.0009076611293119933
0.009078806166482706
-0.00731913675501783
0.00046996979480988456
0.007853621414156008
0.008981283517565586
-0.006166162507922039
-0.00013092567097183115
0.007823887896541301
0.009066483493696095
-0.008856718412632266
0.0005212718174281921
0.002955507256044722
0.008967332822744471
-0.009228267727435568
0.008748273792677614
0.000891268106721303
-0.00029130286522693747
-0.004165772084603406
0.0005936999915811086
-0.0006431807259548173
0.008801397808925023
-0.0023740648623070217
0.008583491931407556
-0.00022878481302021847
0.008335328900304152
-0.0002107993241945232
0.0006870353706323212
0.003876341991452058
0.008326586605441584
0.006738522593285679
-0.000264754721656986
0.005099629526289952
0.0077057130824158245
0.001128833578328487
0.004386023783059628
0.004455109383767901
0.0007802609640334395
0.0009586217241482273
0.008041299067947032
-0.0006369666638655105
0.002837517104128237
0.0010550098464795676
0.006842062907195947
0.003379690654143248
0.007735926013929468
0.007162149812737027
0.001142780013498783
0.007432035735860498
0.007412061424163544
-0.0006384499369770921
0.0008650704193335382
-0.00025244975364476093
-0.00021414041850404778
0.0055985895880859655
0.0057324209791824125
0.0010711448039240376
-0.0006199666025997146
-0.000236664576810901
0.007065894917632677
-0.0006462313468969661
0.001046650693858821
0.0008739147415258504
0.0009499782467304761
0.0009753311911684184
0.001120741068278114
0.007523871574169541
0.006656649908826358
0.0009192500888587908
-0.00020887696161831716
0.001071658151808391
-0.002339655790173367
0.0011441687300366896
-0.004400483153568521
0.007863863439769213
-0.009093830903590363
0.0025941254372907428
-0.008801648209651377
0.006772156931305219
-0.006345572198294915
0.006975493447442472
-0.007530460169570165
0.002703373036627069
-0.008310216254380977
0.008225889234281284
-0.009226279040026977
0.00818782056013396
0.0012309210804498714
-0.00022030239394375253
0.006075208733564919
0.0007894621784753595
-0.0001960035381409929
0.00807613626629952
-0.00922740797278182
0.004228655118213848
0.0012980780672678604
-0.0022228705906462433
0.005435635835582083
0.007720561079434844
0.0014146213289485678
0.0007137473569117019
-0.00019380128202950656
-0.00023896888841627356
0.004808718673157256
-0.0037979635780467547
0.0015223076534142002
0.008493672094135428
-0.00019564539816237123
-0.0002872125570415829
0.00422271499056028
0.0006968844393623063
-0.00912508484974216
-0.008954724592257882
0.0016629039420726368
0.008435277718703128
-0.00020258049911321487
0.008545722477058258
0.003682950481602512
0.008772781160605541
0.0017991053101361852
-0.008448758872775589
0.003194619756415534
0.009013165544052217
0.002062596069382391
0.0011306622955712781
-0.008944346708763831
0.0006045574798376509
0.001941829786540779
-0.00556731339216965
0.001799053911567639
-0.00045629275014233525
-0.000214790545546388
0.005529736003562226
0.0015895038619023968
0.00892406972200151
0.0027610904856438306
-0.006743337563764051
0.0023839830768836493
0.00919942610050646
-0.008703041434728921
-0.0006209790457233374
0.0020676056461323995
0.00053318358678994
0.00215217481263938
-0.007725987481603879
-0.00023153380208976138
0.009311275644519298
0.0014157375282706874
0.002019894268181633
-0.0084167743696206
-0.00011621574783059894
0.002180998277612108
-0.009272517122547008
0.0021432827224129813
0.009203316434546105
0.0020337182797141723
0.0010383746119555102
-0.0002504254913135205
0.0004825636121388275
0.001343646512977714
0.001253272490061759
0.001856613352191121
0.009322512273354382
-0.00809760590127174
0.00881345214046235
-0.00027437183034738886
-0.0017236839226817664
0.0014361746614654162
0.006348871531470176
0.0016373643443150297
0.0004523793900294376
-0.0002996648668174202
0.0010033285461315804
-0.007755620497325206
0.0004218008870959706
-0.007398982314126729
-0.00021905982546694487
-0.00033166474803188845
0.00039244555158131285
-0.007030090488967633
0.0008368582536084206
-0.006644652878810571
0.001551923311845052
-0.0003655693693748686
-0.009427834344479524
-0.00041027091882453687
0.0003682490943235597
-0.006184302204305802
0.0011993440661974089
-0.0004830285278949278
0.00022494250090372283
-0.005550583537615924
0.0013189706614179183
-0.0048585697700186375
0.0003440360071731653
-0.0005642386003671742
0.003275134479313012
-0.0041911355135988634
0.0005062531201412581
-0.0006528694541670042
0.005664303039962258
-0.0035724921492219755
0.0003264995370562302
-0.0007228303293464714
0.0010969412967728987
-0.0030070469717263454
0.00031107518657375955
-0.0008140832762482008
0.001434330964778779
-0.002499028146503649
0.00032696813967178647
-0.0008787223306211186
0.006475950126234097
-0.0020510728471921087
0.0002990691546779587
-0.0009771930470367552
-0.00021951363000644053
-0.0016641597236935206
0.00029243468335282436
-0.0010351159075060743
0.00773000454340143
-0.0013376566578713624
0.00031887259687847817
-0.0011410769833277619
0.004990353988261
-0.0010736657827402326
0.0002921598693786899
-0.0008670356639379618
-0.00023979891640170408
-0.0011888200027372485
0.00029771386080060935
-0.0006989168578591515
0.0015396718349170245
-0.001333036673148053
-2.3485405190873817e-05
-0.00065060755548652
0.007845186736022606
-0.00144123676319686
-0.00015287495312793354
-0.0007777607894851468
-0.0002244843376001739
-0.0010252997041944776
6.178801524285083e-05
-0.0015321707369770597
0.009023623489649026
-0.0016387471314886135
0.00026598625355382747
-0.001294572539485413
0.004363577526581309
-0.0017319354872281428
0.00036010054959399827
-0.0017795588391558842
-0.00026118398909413115
-0.001765218888225673
0.00532550283243842
-0.001680661558268799
-0.0094434229285831
-0.0015220684780099432
-0.0002007313968459714
0.0014216062051218476
0.0009579691718121706
-0.0002024076751328634
0.0008074761325885854
0.004851872829212886
0.0011681018416569706
0.0015282367152450683
0.003796476672602769
-0.00020583891413644353
0.0027204734215619695
0.004255191202217084
0.007254384388762716
-0.009329788084137668
0.00739238983451636
0.001668612591190546
-0.00022718117925616077
-0.00021361385976701288
0.00831570355656246
0.0037065355561446515
0.008840896608110568
0.0018039423132591825
-0.0002380932359635456
0.0032106697956415394
0.0007156648764531324
0.002062387409609848
0.007755996557940354
-0.009138976224490605
0.008059786074166447
0.0019456495767764053
-0.00203613203833863
0.0017956705943370313
0.009107854075548953
-0.0002264103363979631
0.0005459981175075562
0.0015827467507140086
0.009313360327457623
0.002770592958902187
-0.003380394440311703
0.002388044298530001
0.0006246003527600274
-0.008880525311832688
-0.0003126033969015468
0.0020701222303460354
-0.0002447149747363184
0.0021532132196077974
-0.008239046343692904
-0.0002434950305198901
0.008673268623839709
0.0014071507327811613
0.0084910314327003
-0.008574639903820038
0.009436532538155228
0.002180223377149662
0.0015562179029100435
0.002140377369117205
0.0005544893247739175
0.0020283474606918594
-0.007678383900682745
-0.00026245336263430345
0.00945627353820883
0.0013315429693881167
0.0011681380034449357
0.0018485325717478823
-0.0001525288826596055
-0.008236322239846662
-0.004882111235458333
-0.0002864022449668944
0.009094407246463397
0.0014236859496707102
0.0048520175513213516
0.001626651488651061
0.0005045274387517425
-0.00031140869891773065
-0.0059916992255647115
-0.007877081439257742
0.009349239565475936
-0.007504465439076861
-0.0005919489046443961
-0.00034310814274401144
-0.00013299236731534659
-0.007121418912739954
-0.006938149499521337
-0.006722306992790379
0.00047481604345702615
-0.0003766221637382326
0.0016998694276363809
-0.00042058009650627307
0.0004445952197497017
-0.006251148614400783
-0.008645709690486518
-0.0004924372034769714
0.0004154988423443689
-0.005605111111102294
0.0010798207824947463
-0.004902990926046606
0.00015481694170735945
-0.000572692081673354
0.0012756866642481893
-0.00422452540300718
0.0003916727428099353
-0.0006608463266671413
0.008608162619992143
-0.0035967240590258024
0.0002592338811022775
-0.0007304758468303644
0.006763089968007942
-0.003023572581078088
0.0003672808291622225
-0.0008214607545484958
0.0010431520244989449
-0.002508965737507406
0.00031213777312886164
-0.0008858245545276355
-0.00024167235309597974
-0.0020552630904392276
0.00034983441524364
-0.0009841069412537319
0.0008778180078440791
-0.0016635272588303002
0.00033402323550037134
-0.001041706014154374
-0.008917075127708026
-0.0013332476901031691
0.00031807336748212285
-0.0011472535592426693
0.0012320954292950649
-0.001066532723686528
0.00032115527010731997
-0.0008567543817473614
0.0013395847920803599
-0.0011948141280988562
0.00031287524802458205
-0.0006873245581961532
0.0028166687354877367
-0.0013377146639306484
0.00031564836988973703
-0.0006356090001614569
0.006047622960961925
-0.0014456885912077755
0.0003102478832456238
-0.0007626127455677455
0.00571841375179356
-0.0010121450764990257
0.0003105905659553563
-0.0015357681241419112
0.0014532097007229651
-0.001641342408314583
1.495549401508548e-05
-0.0012843528520598089
0.005720786791338077
-0.0017331206511101214
6.916247428706233e-05
-0.001779097367626184
-0.0002441065149259505
-0.0017628606484334057
0.00012115556049002154
-0.001676037668611518
0.007594970944069597
-0.0015147789306850675
0.00017164742190425196
0.0007464665424172871
0.001678378320802358
0.007024863292408969
-0.00023322703990078864
0.0072781048953345796
0.0037894695184887296
-0.0018676306606549376
0.0018114774350889325
0.009164900463151627
0.0032719217716801314
0.000407648256237209
0.002076030131253
0.009225127491034855
-0.009340589777856357
-0.0030230111612235813
0.0019506033703070344
0.0006570786242520891
0.0017983493403383411
-0.0003405363249136613
-0.00024665705425076014
-0.0003399586664770323
0.0015758682819882932
-0.007437306918537886
0.0028132806711164346
0.007933236693550675
0.0024149309715991193
0.00789785903038548
-0.009142885228427081
0.009193334527609755
0.0020719618193851598
-0.006892579737143126
0.0021514429915784703
0.009058714090886426
-0.00026407158326964195
0.0011951028961141366
0.001390700329801633
-0.00022071215089597242
-0.008870991776841985
-0.004297430399515585
0.0021741867995260047
0.008438837674698609
0.0021292873088017777
0.004270185569110122
0.0020116112231941354
0.0005396492826863346
-0.00028293811157065966
-0.005316162203693884
0.0013062125674921658
0.008810895401187381
0.0018261050922048997
0.0012740129089536575
-0.008544724037639529
-0.0006662451130325959
-0.00030677451380232046
-0.006189599571969727
0.001394380403344465
0.0005107742285343198
0.0015994049565896484
0.0014278806936472719
-0.0003312419672469997
0.00048101898903403663
-0.008180581229725502
-0.007847271419596678
-0.007792737572914367
0.0004521248317603496
-0.00036264830420049376
0.0011132655480537912
-0.007386172628503376
0.0006689433630428996
-0.006958499251486779
0.001304289920894407
-0.00039578050037313787
0.0004286616443833682
-0.00043882694831001495
-0.0002487977723532634
-0.006457970514421492
0.007920897005830816
-0.0005096292192412016
0.00031163345208405743
-0.0057835461397707085
0.007226852323569421
-0.005052306141562587
0.0004037457474216544
-0.0005887103772836487
0.001052400660458161
-0.004342702782322462
0.0004132903622512512
-0.0006761463122732061
-0.0002688106579222969
-0.0036875343912505364
0.00038596421680793156
-0.0007451728100686431
0.0009270488907191856
-0.003091257587795707
0.00036903008627224196
-0.0008355532991851542
-0.00814234637762065
-0.002556905134252792
0.0003318128300420269
-0.0008992573811707061
0.0012514731978415417
-0.0020862322512304222
0.0003541175337339661
-0.0009968671948537464
0.0013647822226904628
-0.0016800125692991387
0.0003428140166348714
-0.0010536008139560927
0.0024248721698651534
-0.001337657984087287
0.00034435911376794594
-0.0011583750786784558
0.006584731643478334
-0.0010609522822219576
0.00033780259600100853
-0.0008423535689768606
0.0010384859165390864
-0.0012049382134135594
0.00033276096663823607
-0.0006640503111065956
0.0014757097641764083
-0.0013465732475351274
-0.00013540492503453947
-0.0006039901060612594
0.005073437407246586
-0.0014526837468237894
5.189602121557457e-05
-0.0007275060024941412
-0.00027474126195614623
-0.0009796582972107486
0.00023100714079349414
-0.0015405116210331403
0.00695791063796183
-0.0016433757159625831
0.0003608995948623158
-0.0012571892109535317
0.005878133905765798
-0.0017319440938986057
-0.0002610134465930244
-0.0017740721375335364
-0.00027391360236979215
-0.0017532268785383927
-0.0004677532630839267
-0.0016610577747283315
0.001574265059479096
-0.0014937922904744065
0.000588570028023503
0.007067650282054173
-0.00025166620007213366
0.008668024585543653
0.004646537770380235
-0.0002896354399726365
-0.00906891911778355
0.0007897804980404376
0.0016913498453858678
0.006270667529687767
-0.00026231852888695836
0.006467162886726921
0.004022071993386492
-0.0017120392404772558
0.0018200367437914509
0.00866846002904723
0.0034583833899247537
0.0002971808941862262
0.0021511741961834216
0.008605599074105892
-0.009113900688256014
-0.002716577998213517
0.0019541181496405668
0.0007030052213621467
0.0018452285694754928
0.005295081795195405
-0.00027718652112808205
-0.0002646065291299024
0.001598095662320535
-0.006732538577138921
0.0029582212610611033
0.007089242072008243
0.00252279492565223
0.007104535289049499
-0.00906313540341761
0.008473241480084827
0.002069537522774797
-0.006211029345681237
0.002142058738308913
0.008266028195035371
-0.0002955574229750254
0.0011845291462098582
0.001387255181993474
-0.00021942388729700231
-0.008927625917852676
-0.0038073909900633745
0.0021567454881870904
0.007585979685421925
0.0021028102131163003
0.0037767784445423567
0.00197574008825741
0.0005892101305908611
-0.00031452527801031867
-0.00473909949078617
0.0012764243214693812
0.007974687609539278
0.0017819256025880014
-0.0005543090315705431
-0.008719299449862437
-0.0002392488626285558
-0.00033840807470964017
-0.005546435134771984
0.0013486822909661623
0.0005611603394797284
0.0015505766221020894
0.0011999331055185288
-0.00036242051158032873
0.0005319615040379179
-0.008449433621028868
-0.007125914244368371
-0.00812891200050402
0.0005031063157406394
-0.0003934705466175235
0.0011126834930472156
-0.00776307467117504
0.00030238493159921774
-0.007350974151034724
0.0013327162258042044
-0.000426111123327393
0.00047990216596508254
-0.00684528757402846
0.0071349349755135665
-0.0005370494154902624
0.0003127866397326204
-0.006168103749284349
0.007307765077259122
-0.005407321675027469
0.0004535093467917809
-0.0006144329704164971
0.005670550109135757
-0.004651184944913714
0.000349590075387589
-0.0007006746754321534
-0.00029949774133261446
-0.003945877037149892
0.0004346146484407352
-0.000768306433208909
0.0009731007625392028
-0.0033014913949777373
0.000415275841687146
-0.0008576020701363078
-0.007408773690038808
-0.0027232524885271213
0.0003467620840531061
-0.0009198289138554438
0.0012293467126850161
-0.0022130297847951248
0.0003967388214058373
-0.0010162093485399783
0.0013876470084898242
-0.0017715257019411603
0.00038120019519273366
-0.001071268769944875
0.002090820427505656
-0.0013980035352835671
0.00036134432635070757
-0.001174464705142937
0.006898654037847026
-0.0010944050582780175
0.0003714513095550798
-0.0008522120926963354
0.002291460551634617
-0.001219116650634321
0.0003623182690307742
-0.0006492059398951168
0.0014934608048235642
-0.001358343162719779
-5.340063539198478e-05
-0.0005637297908879053
0.0045328959100603946
-0.0014607134622409456
5.1051293894151247e-05
-0.0006719511460815071
-0.0003083859045174715
-0.0009216968363168508
0.0001522762747991423
-0.0015439681404106293
0.006172820438804987
-0.0016415337270368788
0.0002510319721722303
-0.001204636096021379
0.006378751507043508
-0.001723859948201768
-0.00015352305781786391
-0.0017586312475553723
-0.00029992914282742095
-0.0017292387419307123
-0.0005076272960659225
-0.0016274993113293522