# vtk DataFile Version 1.0
GRUMMP topologically 2D mesh
ASCII

DATASET UNSTRUCTURED_GRID
POINTS 4142 float
  0.9902132100051211  -0.0013897599745845   0.0000000000000000
  0.9878682672001325  -0.0017209544766007   0.0000000000000000
  0.9922830260938109  -0.0010965337451688   0.0000000000000000
  0.9852627687065505  -0.0020876945602550   0.0000000000000000
  0.9824126515147726  -0.0024873693035198   0.0000000000000000
  0.9941016532545700  -0.0008382294190312   0.0000000000000000
  0.9793229395886266  -0.0029189889321549   0.0000000000000000
  0.9759912936709813  -0.0033826574903297   0.0000000000000000
  0.9957253756688895  -0.0006072067599891   0.0000000000000000
  0.9724158418644283  -0.0038783672872607   0.0000000000000000
  0.9972114818934485  -0.0003956828894990   0.0000000000000000
  0.9685983419668763  -0.0044053177853816   0.0000000000000000
  0.9986172604849257  -0.0001958749290171   0.0000000000000000
  0.9645418982154840  -0.0049624143705746   0.0000000000000000
  0.9602493276520160  -0.0055486932126648   0.0000000000000000
  1.0000000000000000   0.0000000000000000   0.0000000000000000
  0.9557225436143375  -0.0061636003738353   0.0000000000000000
  0.9986172604763917   0.0001958749302285   0.0000000000000000
  0.0136778115501445  -0.0198442283865115   0.0000000000000000
  0.9509632892996972  -0.0068066585239019   0.0000000000000000
  0.0111799405480040  -0.0180409152078963   0.0000000000000000
  0.9972114818757430   0.0003956828920181   0.0000000000000000
  0.0164236219435115  -0.0216216850259729   0.0000000000000000
  0.9459737546847580  -0.0074771440326796   0.0000000000000000
  0.0194159763686392  -0.0233724637256901   0.0000000000000000
  0.0089312659290954  -0.0162123970812813   0.0000000000000000
  0.9957253756403164   0.0006072067640564   0.0000000000000000
  0.9353156997544615  -0.0088958032333210   0.0000000000000000
  0.0226532123065557  -0.0250954152174871   0.0000000000000000
  0.0261336316774566  -0.0267893559859237   0.0000000000000000
  0.0068429846519911  -0.0142695304151425   0.0000000000000000
  0.9237713702124288  -0.0104115615140689   0.0000000000000000
  0.0298554003449755  -0.0284531869488138   0.0000000000000000
  0.9941016532123735   0.0008382294250309   0.0000000000000000
  0.0050308200222286  -0.0123013782195995   0.0000000000000000
  0.0012596550434314  -0.0062543845982477   0.0000000000000000
  0.9113626015789812  -0.0120184565864932   0.0000000000000000
  0.0338165365583016  -0.0300859006297539   0.0000000000000000
  0.0005600587198625  -0.0041872521188657   0.0000000000000000
  0.0034956879705714  -0.0103096477045821   0.0000000000000000
  0.0380150486067802  -0.0316864834866382   0.0000000000000000
  0.0001400674572995  -0.0020989425108620   0.0000000000000000
  0.0424489169588349  -0.0332538061244847   0.0000000000000000
  0.8981160449036193  -0.0137076729882106   0.0000000000000000
  0.9922830260341767   0.0010965337536290   0.0000000000000000
  0.0022384105171692  -0.0082946477552229   0.0000000000000000
  0.0000000000000000  -0.0000000005380880   0.0000000000000000
  0.0471161050109934  -0.0347866680569130   0.0000000000000000
  0.8692172420003259  -0.0173025512123363   0.0000000000000000
  0.8840586048664243  -0.0154712341935952   0.0000000000000000
  0.8536242589802903  -0.0191927756559575   0.0000000000000000
  0.0520144653095357  -0.0362838744017245   0.0000000000000000
  0.9902132099234322   0.0013897599861408   0.0000000000000000
  0.0001400673054027   0.0020989413744649   0.0000000000000000
  0.0005600583994229   0.0041872509286527   0.0000000000000000
  0.0089312642537700   0.0162123956290166   0.0000000000000000
  0.0068429832427153   0.0142695290019493   0.0000000000000000
  0.0022384098100130   0.0082946464730838   0.0000000000000000
  0.0034956870455263   0.0103096463775504   0.0000000000000000
  0.0050308188630767   0.0123013768482443   0.0000000000000000
  0.0111799386902237   0.0180409137864515   0.0000000000000000
  0.8373107726191357  -0.0211334926288444   0.0000000000000000
  0.0624935355792051  -0.0391666954139108   0.0000000000000000
  0.9878682670932252   0.0017209544916756   0.0000000000000000
  0.0136778095139640   0.0198442269960848   0.0000000000000000
  0.8203090273240524  -0.0231167391866414   0.0000000000000000
  0.0738633143603066  -0.0418930499584099   0.0000000000000000
  0.8026551811301268  -0.0251343400368426   0.0000000000000000
  0.9852627685719384   0.0020876945791685   0.0000000000000000
  0.0861021386417074  -0.0444536409739349   0.0000000000000000
  0.7843840873894279  -0.0271778197795966   0.0000000000000000
  0.9824126513500548   0.0024873693265746   0.0000000000000000
  0.0991843265815398  -0.0468392532814141   0.0000000000000000
  0.0164236197329729   0.0216216836667636   0.0000000000000000
  0.7461418339277840  -0.0313078737465108   0.0000000000000000
  0.9793229393907722   0.0029189889597428   0.0000000000000000
  0.1130825286139299  -0.0490420520078216   0.0000000000000000
  0.7058944105034720  -0.0354399888107516   0.0000000000000000
  0.1277704618123611  -0.0510562827506626   0.0000000000000000
  0.1762568929815641  -0.0559042078350805   0.0000000000000000
  0.0194159739879911   0.0233724623981675   0.0000000000000000
  0.6639684116827792  -0.0395008026994765   0.0000000000000000
  0.1937838883744062  -0.0571083155282771   0.0000000000000000
  0.9759912934368556   0.0033826575228533   0.0000000000000000
  0.2119350336566717  -0.0581032139582273   0.0000000000000000
  0.1432165586985055  -0.0528747491799113   0.0000000000000000
  0.1593891568184451  -0.0544918670991958   0.0000000000000000
  0.0226532097601106   0.0250954139222151   0.0000000000000000
  0.6207078411914361  -0.0434191082996254   0.0000000000000000
  0.5764634620046084  -0.0471137377839725   0.0000000000000000
  0.9724158415910057   0.0038783673250912   0.0000000000000000
  0.2306739249637577  -0.0588890260835713   0.0000000000000000
  0.0261336289695199   0.0267893547234291   0.0000000000000000
  0.5315950381341085  -0.0505057454921963   0.0000000000000000
  0.4864703588817339  -0.0535094604401647   0.0000000000000000
  0.4414549182767121  -0.0560390634426787   0.0000000000000000
  0.9685983416513994   0.0044053178288238   0.0000000000000000
  0.2697570606452168  -0.0598365819607799   0.0000000000000000
  0.3969170552729402  -0.0580119076690758   0.0000000000000000
  0.0298553974799863   0.0284531857194991   0.0000000000000000
  0.9645418978552561   0.0049624144199126   0.0000000000000000
  0.3107174127482247  -0.0599745523566999   0.0000000000000000
  0.3532197168655907  -0.0593474025151865   0.0000000000000000
  0.9602493272443249   0.0055486932681955   0.0000000000000000
  0.0338165335406938   0.0300858994339835   0.0000000000000000
  0.0380150454409591   0.0316864823247920   0.0000000000000000
  0.9557225431564565   0.0061636004358678   0.0000000000000000
  0.0424489136491938   0.0332538049970267   0.0000000000000000
  0.0471161015618897   0.0347866669642923   0.0000000000000000
  0.9509632887889385   0.0068066585927330   0.0000000000000000
  0.9459737541185675   0.0074771441085412   0.0000000000000000
  0.0520144617255517   0.0362838733443521   0.0000000000000000
  0.9353156990700551   0.0088958033238094   0.0000000000000000
  0.0624935317401540   0.0391666944281135   0.0000000000000000
  0.0738633102849253   0.0418930490455120   0.0000000000000000
  0.9237713694002159   0.0104115616199952   0.0000000000000000
  0.0861021343485112   0.0444536401350998   0.0000000000000000
  0.9113626006299211   0.0120184567085017   0.0000000000000000
  0.0991843220904188   0.0468392525175462   0.0000000000000000
  0.8981160438094651   0.0137076731266115   0.0000000000000000
  0.1130825239435962   0.0490420513187447   0.0000000000000000
  0.8840586036192291   0.0154712343488011   0.0000000000000000
  0.1277704569818227   0.0510562821360933   0.0000000000000000
  0.8692172405930260   0.0173025513845012   0.0000000000000000
  0.1432165537277111   0.0528747486397878   0.0000000000000000
  0.8536242574066383   0.0191927758449732   0.0000000000000000
  0.1593891517258480   0.0544918666322352   0.0000000000000000
  0.8373107708732270   0.0211334928345504   0.0000000000000000
  0.1762568877862003   0.0559042074398506   0.0000000000000000
  0.8203090254010921   0.0231167394087162   0.0000000000000000
  0.1937838830953411   0.0571083152030304   0.0000000000000000
  0.2119350283118140   0.0581032137003017   0.0000000000000000
  0.8026551790260408   0.0251343402747870   0.0000000000000000
  0.2306739195716207   0.0588890258904683   0.0000000000000000
  0.7843840851007032   0.0271778200327233   0.0000000000000000
  0.2697570552113356   0.0598365818878674   0.0000000000000000
  0.7461418312636445   0.0313078740273454   0.0000000000000000
  0.3107174073396524   0.0599745523895525   0.0000000000000000
  0.3532197115457904   0.0593474026374948   0.0000000000000000
  0.7058944074605978   0.0354399891145804   0.0000000000000000
  0.6639684082655058   0.0395008030201497   0.0000000000000000
  0.3969170500997217   0.0580119078642495   0.0000000000000000
  0.6207078374111498   0.0434191086291270   0.0000000000000000
  0.5764634578798972   0.0471137381129498   0.0000000000000000
  0.5315950336908907   0.0505057458089039   0.0000000000000000
  0.4864703541532008   0.0535094607315534   0.0000000000000000
  0.4414549133024901   0.0560390636939180   0.0000000000000000
  0.9901595609719056  -0.0023783411927147   0.0000000000000000
  0.0326649145266362  -0.0334200843455863   0.0000000000000000
  0.9878329678703356  -0.0027145673674890   0.0000000000000000
  0.0733998606732272  -0.0440344159407381   0.0000000000000000
  0.9922372924577029  -0.0020726951087579   0.0000000000000000
  0.8846838814295012  -0.0208009306521702   0.0000000000000000
  0.9852539181750185  -0.0030832573491977   0.0000000000000000
  0.8205556230767344  -0.0253024477924150   0.0000000000000000
  0.9824277530968584  -0.0034836508822686   0.0000000000000000
 -0.0022154120548041  -0.0049277430541563   0.0000000000000000
[...]
POINT_DATA 4142
SCALARS continuity float
LOOKUP_TABLE default
-0.008684307838172724
-0.008746977386073657
-0.008532673049235214
-0.008827498502410528
-0.008885527836338968
-0.008643651822281353
-0.008936909530816918
-0.008973970753996249
-0.007979116884285627
-0.008999082045631896
-0.008789234800424206
-0.009018266001961867
-0.020874866887868822
-0.009020186147347693
-0.009016299611095457
-0.012720913629175172
-0.00900237725789595
-0.0275587508282339
-0.005077627564375118
-0.008984023658505551
-0.005448540289731995
-0.008725367201514614
-0.004661717207998316
-0.008928795687755398
-0.004210724386952406
-0.005760349666283055
-0.008066091988583173
-0.008834058372369181
-0.0037348967468839667
-0.0032503000335103193
-0.006031263052061901
-0.008697075794580098
-0.002765093292998797
-0.008736347870883739
-0.006218774164174425
-0.006516269746855636
-0.008554443043765068
-0.002287478742150298
-0.006557006547418091
-0.006353227023624367
-0.0018273219739453588
-0.006578998371770941
-0.0013793727117125277
-0.008403244632244075
-0.008561197639009468
-0.006449650573061564
-0.006571429434968657
-0.0009066745930366584
-0.008021592312072116
-0.008236675237795288
-0.007800996484289023
-0.00048395679397782024
-0.008708369891261204
-0.006375434677546144
-0.006913719373520021
-0.005762550353166431
-0.006031854077881858
-0.006377322685146536
-0.006393062095267326
-0.006259719871626723
-0.005468093762494902
-0.007498187678100668
0.0001845637553073135
-0.00876470169722641
-0.005105567577650055
-0.007223645024780369
0.0008046479406746482
-0.006838021364778939
-0.008833597136825076
0.0013901948836769324
-0.006316985491259301
-0.008890919935970729
0.0018878399304995905
-0.004691846456493834
-0.005529071245920998
-0.00893257463935923
0.0023083029067136013
-0.004500018452482116
0.002664498166037006
0.003438966223611855
-0.004241045554498974
-0.003258552442058191
0.003624248892718925
-0.008964118205450124
0.003785305105300363
0.0029666036689510187
0.003222050456653559
-0.003766232119091115
-0.001822225777801272
-0.0002606007175645931
-0.008985860233586955
0.00391485549018641
-0.0032816121345582545
0.0013410063064222479
0.0028529125769124757
0.004102370725966082
-0.00899218269947557
0.0043292141245651955
0.004895522513724897
-0.0027944806370891456
-0.00899336437701807
0.004799166191290273
0.005107136603051559
-0.008978974537698692
-0.002314969463613998
-0.0018501833945512186
-0.008961180627805355
-0.0013962481859039518
-0.000916689311701837
-0.00894017634319399
-0.008862812927544686
-0.0004862145731712828
-0.008771005019000005
0.0001871341639103755
0.0008015723378327992
-0.008618915692602721
0.0013840914083776575
-0.00846921420861267
0.0018826056664196368
-0.00833160461693906
0.002305595046303861
-0.00812984880769346
0.002664351526826589
-0.007940143856791456
0.0029684503246491093
-0.007667166074450128
0.003226144479168542
-0.0074231663406274535
0.0034462021955859565
-0.00707601524485268
0.00363646840758369
0.0038042729836110117
-0.006760782848837435
0.003951885914280538
-0.006193781335461959
0.004376749150782916
-0.005387753850174688
0.004852310586554711
0.005162076794066154
-0.004357738881484166
-0.0031288757606413643
0.004958227556208275
-0.001702825636993264
-0.0001416016579969189
0.001450165661954109
0.002945594981017727
0.004178301150742468
-0.008737994292772944
-0.004575460568131911
-0.00877330968568173
0.0004595700016629495
-0.008537677880960597
-0.008294708641599813
-0.008852719133275549
-0.007233107909960193
-0.008906842561881107
-0.006447866553781553
-0.008918232796846875
-0.006804561675197688
-0.008956426924040367
-0.003509434792902553
-0.008991549515547852
-0.008829486638929494
-0.007595930811460633
-0.007763800687174115
-0.009015606848154625
-0.00023744214772483324
-0.010100597452551785
-0.008066007059352013
-0.009033859668274831
-0.0075090329600687265
-0.007384458806795125
-0.0039010422126636514
-0.009034908392160765
-0.007293064043975492
-0.009029938489335596
-0.008974936920159698
-0.014216199219556799
-0.014560838831873245
-0.011957779382017492
-0.010369341260509052
-0.009486029586280241
-0.010282244610263083
-0.011663210031313948
-0.009014386618934306
-0.007984052203993513
-0.005816377811889352
-0.006177017768497436
-0.00538949734741992
-0.00786939298674759
-0.008994835161987081
-0.004094114079922913
-0.005850923099099477
-0.0077469262758927265
-0.0102092150053058
-0.0032462428326075327
-0.0048987210017156935
-0.007902582364043773
-0.008939173048120249
-0.003793653812586424
-0.0043887272376818606
-0.00766972759892516
-0.006275967117110388
-0.008447418989425306
-0.007535118092718154
-0.007233070039264035
-0.008842771118607767
-0.005230501697267589
-0.003870981279648889
-0.006683543274977542
-0.0033517090045560877
-0.008719693563384895
-0.006647023599741466
-0.0087962204380431
-0.00870526699153601
-0.005496069437778161
-0.0028412518228459215
-0.0009729389712254998
-0.009014817813148543
-0.007314371086968148
-0.006929530356228957
-0.007814106972479978
-0.007232833421420521
-0.00646242382782346
-0.008561643644471517
-0.008254941871906639
-0.0023443027963448615
-0.006095844939342964
-0.00719009173055384
-0.008036797712001812
-0.007117996223659372
-0.0045885898196352266
-0.0018696080456204398
-0.001500020964350062
-0.007141442407521905
-0.0025804238431384073
-0.001413967232007202
-0.006668054894699598
-0.008409975143067204
-0.008835914285509268
-0.008562332875208106
-0.007591380701576479
-0.007216596753031778
-0.008051801094093564
-0.00710673891802999
-0.00859877728039304
-0.000941256102485933
-0.004337419747574804
-0.008027846370992879
-0.008424157563810685
-0.008243693526084128
-0.00827412980230129
-0.007806961592807937
-0.002046087355812482
-0.0004833649919481116
-0.008474338780982391
-0.008765636156915092
-0.006751361616314921
-0.006984009305513126
-0.007825543815614792
-0.007391287377652577
-0.0025780105352657618
-0.00622250780281509
-0.0030961110295982803
-0.006607853140448256
-0.00782955471821243
-0.007348135654210763
-0.0019258242017811016
-0.007122037680929143
-0.0069737662773251465
-0.006944608930777382
-0.00480486240296335
-0.005810146359601643
-0.0031388241896936706
-0.007503680554407608
-0.008885712192300664
0.00017285944121255557
-0.008578253309931286
-0.008791763951694837
-0.005328794229812778
-0.00536269568310606
-0.0072806967183066005
-0.0072291816326334945
-0.006203347085644926
0.0008012479971821013
-0.00794273484142567
-0.0068413329364210695
-0.005298308627380966
-0.008859139039989338
-0.008832614508138065
0.0013892190557095755
-0.0067207163487298365
-0.006323567611627053
-0.003733260952248666
-0.008912906647472952
-0.00909700273517329
0.001887879598102415
-0.008723709025558213
-0.004882945515246962
-0.008478164214153018
-0.005533103254494182
-0.007893810318033267
-0.008952435397451657
-0.005461100843555454
0.002308401929445987
-0.004350639060844932
-0.004504485700467142
-0.008394154407264275
0.00266406663288408
-0.004983009164206152
0.0034357241124340137
-0.008066507184893183
-0.004382167088345973
-0.008861704223358687
-0.0032625128486488963
-0.00734656420685639
0.00362027083636948
-0.007745836800930772
-0.00898254523639306
-0.006962659765021173
0.0037800832834987215
-0.007666147693850233
0.0029653381486979226
-0.007785891558369479
0.0032198222991303258
-0.005617487764355757
-0.0038725235900845846
-0.0027804468207577133
-0.001826193377710762
-0.008957774571003918
-0.0002642763441133869
-0.008162083333269041
-0.009003190066365947
-0.006232492155511951
0.003910888967577994
-0.005564008986271761
-0.0033603378040018782
-0.009531257753785086
0.0013371271413043547
-0.008394889201081857
0.0028487847115862648
-0.007290331694953801
0.004097847222936646
-0.008303657204977406
-0.00900840454753646
-0.009013237527765033
0.0043231417064925485
-0.00751707078079485
0.004890138894837729
-0.006800327137185678
-0.0028530493267564837
-0.0060788804279519265
-0.00900835072325262
-0.0027716771012903365
0.004792672965219116
-0.00105589132326687
0.005101384760396507
-0.009033555516860838
-0.008993193086737373
-0.008470990100245473
-0.002359938536368675
-0.009049240636649896
-0.0018854184699586595
-0.008910461329175999
-0.008974183013776454
-0.009054720235927297
-0.0014270301701724021
-0.008639107367665207
-0.0009483860832194725
-0.0019176643307237016
-0.008951284492630909
-0.008145250061264996
-0.008873491746465685
-0.00905485875052006
-0.0004885386561477068
-0.007826817187761854
-0.008780210611926574
-0.009521750345592267
0.00017270087703377866
-0.0072386513207345045
0.0007933307807808114
-0.009037606361754892
-0.008627293570826852
-0.005975269129761285
0.0013772666725007042
-0.0076650982142132205
-0.008476901311264173
-0.00022162476650993893
0.001876449327913461
-0.009015780820830554
-0.008338459550376492
-0.006977638557403819
0.0022995093116716593
-0.008983906891032156
-0.00813644265744939
-0.006846507045776089
0.0026580243614076635
-0.008785151870486563
-0.007946817837929927
-0.0074214303318324674
0.0029615740580682154
-0.008938638782499128
-0.007673945584508167
-0.008965516797555136
0.0032184405043182334
-0.00889132869237903
-0.007429803160967587
-0.004686552893954146
0.00343789506982164
-0.008576758220424445
-0.007082237418631287
0.000548886430190997
0.0036275437811972696
-0.008815693959117497
0.0037953064740958577
-0.008929673322550936
-0.006765390967564885
-0.008777970300398884
0.003942698003737657
-0.006324399130351212
-0.00620066136043607
-0.010814677048367981
0.0043671708773946214
-0.005654644664051934
-0.00539276655272806
-0.010308647192227753
0.004842905851836932
-0.009006734914987586
0.005153810277411503
-0.01064831666671094
-0.004363198177000036
-0.006648092963041399
-0.003133947863863548
-0.01028100884134883
0.004950708125689414
0.0011954067445617183
-0.0017076379725525516
-0.011368058444164185
-0.0001465889850182494
-0.009071361524927962
0.0014451281858291083
-0.00041381330295028006
0.002939657521883115
-0.007751244829902427
0.004171962931449134
-0.011388225776800306
-0.006843775083107157
-0.008491791689577416
-0.008894122665033305
-0.008605814346456554
0.0011095286865818413
-0.007834011531620985
-0.0063248740087524435
-0.006852337527792087
-0.008942314472695277
-0.0023996728830986656
0.0016577174212055127
-0.008135160057184941
-0.006236959007215221
-0.003331536117196285
-0.005532229312568344
-0.00890961828652993
-0.008977783161454575
-0.005844139442088611
0.002117449458731078
-0.005266620692177551
-0.0045013824342627195
-0.008973546880512202
0.002503814664594285
-0.008755586466895953
0.0033353401225274496
-0.0054482687010409675
-0.0056250875726326114
-0.008381670149831731
-0.0032576271559328716
-0.005390284872039482
0.0035337571531080404
-0.005953741331243435
-0.00900487346136253
-0.004392226616433265
0.003706567744287868
-0.00661290543313141
0.002829201320601303
-0.005838954034981505
0.003103154480850779
-0.008896506846058144
-0.00499321360050139
-0.009210442109677435
-0.0018202117072978396
-0.008183138043825746
-0.000257964353512275
-0.008075114102282248
-0.009023770494068403
-0.008458819328894902
0.0038473827812127853
-0.006263476486657352
-0.004362666262163818
-0.007215360936133908
0.0013428096002965578
-0.006313562386131999
0.00285198993269313
-0.008994498134603245
0.004096419942432222
-0.0078101102780512854
-0.009028150955186788
-0.007729218377839872
0.004273612603071123
-0.008024465544724604
0.004880825302799152
-0.009417058208363782
-0.0037455158632292056
-0.006398990643928045
-0.00902765368922764
-0.008373637576797693
0.004757189922203062
-0.0059827679436754945
0.005080275617501795
-0.00905233222242477
-0.009011754192071914
-0.0069702151820876645
-0.003153597514147521
-0.008121895581402347
-0.002591322130409425
-0.002132359780392163
-0.008992598427629473
-0.007122459865518776
-0.0020554964869154324
-0.007441790792466742
-0.001502861167709331
-0.009074420661138187
-0.008969529563043347
-0.004641371233569307
-0.008891857202227148
-0.009091881204497339
-0.000974751280556582
-0.008223051197176529
-0.00879910400657155
-0.00909952780669556
-0.00023403839100439455
-0.008272278956752864
0.0004545620828005886
-0.007411697827166094
-0.008645407878849685
-0.007520752821195866
0.0010996170897788632
-0.009102328389295153
-0.008493020017752324
-0.0066098902428793314
0.0016479597880520178
-0.009410679038283697
-0.008352096062640571
-0.002357683583578033
0.002109331991284175
-0.009088506949760823
-0.008147497105525802
-0.008357046920101807
0.002498183617283681
-0.008207717567542551
-0.00795586220590662
-0.009002346117133568
0.0028255017862070697
-0.009071244623064655
-0.007680657009484368
-0.008665273602109115
0.0031016682151628946
-0.00904521251114618
-0.007434621305451114
-0.008246598683826677
0.003337181297642819
-0.008880183157954424
-0.0070854301438378195
-0.007775748519008626
0.0035404437443190043
-0.009006256949851516
0.003720447451724333
-0.00723760240104451
-0.006767028118021777
-0.008967776960807238
0.0038782043781184702
-0.005028907009904131
-0.006201716630955071
-0.008707588667813954
0.0043167711736956955
-0.0013571310170587565
-0.0053916105920234535
-0.008900793430016277
0.004807206061171095
-0.002435483271335408
0.0051323202187533645
-0.008873658246134536
-0.004360172465380455
-0.006840912940312133
-0.0031289292865305978
-0.010692631193167268
0.0049409781669771825
-0.006435350016222482
-0.001701752015918485
-0.01085784991434205
-0.00014039823138238533
-0.009050753633432287
0.0014503069795217785
-0.010756281501584551
0.0029424963724812756
-0.005146525926523569
0.004169952321215144
-0.010962752464035936
-0.008794963428077451
-0.0055280372233433355
-0.0045189717940078145
-0.009035749901737711
-0.007793953178316078
0.0017331817101135102
-0.0045224703691595525
-0.0044932259404437975
-0.00715070493605587
0.0021805321914192006
-0.00355656717026407
0.003127721564503764
-0.007572183416421662
-0.00723570142720642
-0.0048993945832755265
-0.0032463236782678483
-0.008940474524984402
0.0033524545682174925
-0.009253837686417195
-0.009057845386104619
-0.008412442800220578
0.0035468546853084613
-0.007112398633232626
0.0025537574283760315
-0.008051724455865453
0.002864860448793157
-0.00581349701490135
-0.006632074166004843
-0.007898734281778973
-0.0018072759578525617
-0.006822404130899896
-0.0002455193029293128
-0.008114596847736263
-0.009072716914521281
-0.007887102709108607
0.003707756364097065
-0.009082386919381614
-0.005970244586681774
-0.005368123932158962
0.0013522529299477026
-0.008197129914701572
0.002854062005212881
-0.005055666207322163
0.004085208368212128
-0.00910246370550971
-0.009073674728912037
-0.005964218215051254
0.00415719753045953
-0.00821307808825135
0.004849965833900872
-0.00033390331989810684
-0.005281418595026706
-0.006950691869861647
-0.00907101347432671
-0.00644038765872124
0.0046690475629703855
-0.009127568386062433
0.005022627188641961
-0.0037842052011257863
-0.00905312872635531
-0.009147983542227074
-0.004589453111683095
-0.0073070353207122934
-0.003911836954785997
-0.009159015194557809
-0.009032072090380995
-0.008146903336514286
-0.003253662383057338
-0.006832659256239324
-0.0025787778458864607
-0.00750627624243266
-0.009007620956449332
-0.009166773590110634
-0.008927566585460133
-0.009008519490719492
-0.001923033053110289
-0.005947097990079265
-0.008833181310036482
-0.009070453364488333
-0.0010470552036510928
-0.0038402942862397578
-0.00022251852246330217
-0.00915797902931986
-0.00867644343983597
-0.008059957864506782
0.000542390113024049
-0.008394404941217593
-0.008519545132204022
-0.009101693344520058
0.0011879422848294153
-0.009146981034194639
-0.0083745410466727
-0.008655080008055545
0.0017267509857625833
-0.009127342211210521
-0.008165560861613862
-0.007411723219317888
0.002176000786017803
-0.008919958429765437
-0.007970151973937988
-0.007627859854861287
0.002550901803942411
-0.009093628231909746
-0.007691390885965009
-0.007217351367259941
0.002863678193286243
-0.009061502701327268
-0.007442293539743385
-0.004144165769756877
0.003129037839187954
-0.008829091857952415
-0.0070904749743788565
-0.0028360774429682504
0.003358034546328715
-0.008999163913829447
0.003559100955107705
-0.0072498153779302806
-0.006769327425224315
-0.008971842496205553
0.003736756728028264
-0.006813126727489495
-0.00620064893757059
-0.009531567637257194
0.004198672121081699
-0.005491406151767904
-0.005387036218964016
-0.009761057897997614
0.0047174461759783735
-0.009137887003029692
0.005073217219144016
-0.009519115431631494
-0.004351940895965382
-0.004449032710207907
-0.0031178582540022496
-0.009443459717662497
0.004908383945611051
-0.0017950604611867314
-0.0016892706222609618
-0.00945414438108638
-0.0001288144570200331
-0.009099990097968585
0.0014585595208059885
-0.008972643920680642
0.00294302317708861
-0.006278594116577842
0.004157222288217057
-0.009041867050245461
-0.004590604987726444
-0.009087959780944684
-0.006893859368282083
0.0003900642311295295
-0.009162778727774802
-0.008145518124400727
-0.00882917103657824
-0.005511753575382097
-0.0033176714710532224
-0.00911181951894891
-0.006813369474115192
0.001061003070393351
-0.0036966831083785163
-0.004469848561048634
-0.007114447777116072
0.001617505944369252
-0.0028258996694107107
0.0027712378904045194
-0.007274874515188465
-0.007930949575599379
-0.004022112601270062
-0.003218820173784687
-0.008980596887748875
0.0030402036858191276
-0.002135724359943507
-0.009128555689936826
-0.008732172686658752
0.003268562495751975
-0.006125955254073561
0.002077103801061474
-0.007093571687918037
0.0024555945584487492
-0.004690912916669703
-0.007605106179513663
-0.007377170281464283
-0.0017786483724375206
-0.005847895314660386
-0.00021932028414033676
-0.007417329438116373
-0.009138820258901292
-0.007568902141266921
0.0034597000730002374
-0.009066236121859096
-0.007181036030266964
-0.004419027242889891
0.0013697531317877442
-0.007288152364759377
0.0028543791714657906
-0.004252613798853549
0.004057345839478453
-0.009151617418928918
-0.009134456381539658
-0.005004072162835598
0.003942023335789648
-0.007389315684278701
0.004781878332385777
-0.0015645612059774522
-0.006673228124833543
-0.008359063381446832
-0.009128080664639182
-0.005471843425451642
0.004498323606918924
-0.009181058284850625
0.004904839467123512
-0.003032985400761722
-0.009106752886225103
-0.009206340383406326
-0.006097973478010503
-0.006301340775229413
-0.005474589672810878
-0.009222751848803798
-0.009083398792946994
-0.007839084510854303
-0.004811492531086679
-0.008417855760091682
-0.0040898339337693485
-0.007445056294073566
-0.009055947873891945
-0.009237241074332346
-0.003324849702419342
-0.00482213937885752
-0.008875789796192314
-0.009071107886056586
-0.0023422408432869106
-0.004669825043768671
-0.0013521989233993379
-0.009234434594430924
-0.00871410984341489
-0.002699478124133223
-0.0004145919539251146
-0.008747285880435588
-0.00855095774179596
-0.009187781420876655
0.0003873058105411474
-0.009230066333754727
-0.008399786913328102
-0.008552321442220541
0.001059278205357549
-0.00921610828127112
-0.008184230178507196
-0.006386956962189491
0.0016168069654115512
-0.009015500123212849
-0.007983117746570696
-0.00730190615949359
0.0020772929211750925
-0.009185720928567035
-0.007698707754032713
-0.007148664529092218
0.0024565550026097675
-0.009158507999316683
-0.007445018226331217
-0.003371306715964107
0.002773925660567925
-0.008978784416951515
-0.007088409608887612
-0.004003577333635733
0.0030463656535898824
-0.009103135853571233
0.0032806241749651762
-0.0024783077956730716
-0.006762753996513919
-0.009077455721397511
0.0034872596114492085
-0.00673599441121366
-0.006189068309617488
-0.009536740605274471
0.003981990275986366
-0.004692051522251467
-0.005369746997297053
-0.009655188017553721
0.0045445253594568
-0.009217170781197218
0.004953124478495984
-0.009560603961316715
-0.0043288710232451885
-0.003217307120707772
-0.003091039698887943
-0.00947196255879234
0.004837941912087073
-0.003170401666051803
-0.0016616233524874725
-0.0094223887855876
-0.00010424646710526466
-0.009169350883030915
0.0014737566182283987
-0.009014117840312244
0.002940865446546873
-0.006192234405549981
0.004126707955420415
-0.009087471471719632
-0.00346599192846283
-0.009172605980030599
-0.006069687688392374
-0.0008432103952683517
-0.009222435573254844