# vtk DataFile Version 1.0
GRUMMP topologically 2D mesh
ASCII

DATASET UNSTRUCTURED_GRID
POINTS 4142 float
  0.9902132100051211  -0.0013897599745845   0.0000000000000000
  0.9878682672001325  -0.0017209544766007   0.0000000000000000
  0.9922830260938109  -0.0010965337451688   0.0000000000000000
  0.9852627687065505  -0.0020876945602550   0.0000000000000000
  0.9824126515147726  -0.0024873693035198   0.0000000000000000
  0.9941016532545700  -0.0008382294190312   0.0000000000000000
  0.9793229395886266  -0.0029189889321549   0.0000000000000000
  0.9759912936709813  -0.0033826574903297   0.0000000000000000
  0.9957253756688895  -0.0006072067599891   0.0000000000000000
  0.9724158418644283  -0.0038783672872607   0.0000000000000000
  0.9972114818934485  -0.0003956828894990   0.0000000000000000
  0.9685983419668763  -0.0044053177853816   0.0000000000000000
  0.9986172604849257  -0.0001958749290171   0.0000000000000000
  0.9645418982154840  -0.0049624143705746   0.0000000000000000
  0.9602493276520160  -0.0055486932126648   0.0000000000000000
  1.0000000000000000   0.0000000000000000   0.0000000000000000
  0.9557225436143375  -0.0061636003738353   0.0000000000000000
  0.9986172604763917   0.0001958749302285   0.0000000000000000
  0.0136778115501445  -0.0198442283865115   0.0000000000000000
  0.9509632892996972  -0.0068066585239019   0.0000000000000000
  0.0111799405480040  -0.0180409152078963   0.0000000000000000
  0.9972114818757430   0.0003956828920181   0.0000000000000000
  0.0164236219435115  -0.0216216850259729   0.0000000000000000
  0.9459737546847580  -0.0074771440326796   0.0000000000000000
  0.0194159763686392  -0.0233724637256901   0.0000000000000000
  0.0089312659290954  -0.0162123970812813   0.0000000000000000
  0.9957253756403164   0.0006072067640564   0.0000000000000000
  0.9353156997544615  -0.0088958032333210   0.0000000000000000
  0.0226532123065557  -0.0250954152174871   0.0000000000000000
  0.0261336316774566  -0.0267893559859237   0.0000000000000000
  0.0068429846519911  -0.0142695304151425   0.0000000000000000
  0.9237713702124288  -0.0104115615140689   0.0000000000000000
  0.0298554003449755  -0.0284531869488138   0.0000000000000000
  0.9941016532123735   0.0008382294250309   0.0000000000000000
  0.0050308200222286  -0.0123013782195995   0.0000000000000000
  0.0012596550434314  -0.0062543845982477   0.0000000000000000
  0.9113626015789812  -0.0120184565864932   0.0000000000000000
  0.0338165365583016  -0.0300859006297539   0.0000000000000000
  0.0005600587198625  -0.0041872521188657   0.0000000000000000
  0.0034956879705714  -0.0103096477045821   0.0000000000000000
  0.0380150486067802  -0.0316864834866382   0.0000000000000000
  0.0001400674572995  -0.0020989425108620   0.0000000000000000
  0.0424489169588349  -0.0332538061244847   0.0000000000000000
  0.8981160449036193  -0.0137076729882106   0.0000000000000000
  0.9922830260341767   0.0010965337536290   0.0000000000000000
  0.0022384105171692  -0.0082946477552229   0.0000000000000000
  0.0000000000000000  -0.0000000005380880   0.0000000000000000
  0.0471161050109934  -0.0347866680569130   0.0000000000000000
  0.8692172420003259  -0.0173025512123363   0.0000000000000000
  0.8840586048664243  -0.0154712341935952   0.0000000000000000
  0.8536242589802903  -0.0191927756559575   0.0000000000000000
  0.0520144653095357  -0.0362838744017245   0.0000000000000000
  0.9902132099234322   0.0013897599861408   0.0000000000000000
  0.0001400673054027   0.0020989413744649   0.0000000000000000
  0.0005600583994229   0.0041872509286527   0.0000000000000000
  0.0089312642537700   0.0162123956290166   0.0000000000000000
  0.0068429832427153   0.0142695290019493   0.0000000000000000
  0.0022384098100130   0.0082946464730838   0.0000000000000000
  0.0034956870455263   0.0103096463775504   0.0000000000000000
  0.0050308188630767   0.0123013768482443   0.0000000000000000
  0.0111799386902237   0.0180409137864515   0.0000000000000000
  0.8373107726191357  -0.0211334926288444   0.0000000000000000
  0.0624935355792051  -0.0391666954139108   0.0000000000000000
  0.9878682670932252   0.0017209544916756   0.0000000000000000
  0.0136778095139640   0.0198442269960848   0.0000000000000000
  0.8203090273240524  -0.0231167391866414   0.0000000000000000
  0.0738633143603066  -0.0418930499584099   0.0000000000000000
  0.8026551811301268  -0.0251343400368426   0.0000000000000000
  0.9852627685719384   0.0020876945791685   0.0000000000000000
  0.0861021386417074  -0.0444536409739349   0.0000000000000000
  0.7843840873894279  -0.0271778197795966   0.0000000000000000
  0.9824126513500548   0.0024873693265746   0.0000000000000000
  0.0991843265815398  -0.0468392532814141   0.0000000000000000
  0.0164236197329729   0.0216216836667636   0.0000000000000000
  0.7461418339277840  -0.0313078737465108   0.0000000000000000
  0.9793229393907722   0.0029189889597428   0.0000000000000000
  0.1130825286139299  -0.0490420520078216   0.0000000000000000
  0.7058944105034720  -0.0354399888107516   0.0000000000000000
  0.1277704618123611  -0.0510562827506626   0.0000000000000000
  0.1762568929815641  -0.0559042078350805   0.0000000000000000
  0.0194159739879911   0.0233724623981675   0.0000000000000000
  0.6639684116827792  -0.0395008026994765   0.0000000000000000
  0.1937838883744062  -0.0571083155282771   0.0000000000000000
  0.9759912934368556   0.0033826575228533   0.0000000000000000
  0.2119350336566717  -0.0581032139582273   0.0000000000000000
  0.1432165586985055  -0.0528747491799113   0.0000000000000000
  0.1593891568184451  -0.0544918670991958   0.0000000000000000
  0.0226532097601106   0.0250954139222151   0.0000000000000000
  0.6207078411914361  -0.0434191082996254   0.0000000000000000
  0.5764634620046084  -0.0471137377839725   0.0000000000000000
  0.9724158415910057   0.0038783673250912   0.0000000000000000
  0.2306739249637577  -0.0588890260835713   0.0000000000000000
  0.0261336289695199   0.0267893547234291   0.0000000000000000
  0.5315950381341085  -0.0505057454921963   0.0000000000000000
  0.4864703588817339  -0.0535094604401647   0.0000000000000000
  0.4414549182767121  -0.0560390634426787   0.0000000000000000
  0.9685983416513994   0.0044053178288238   0.0000000000000000
  0.2697570606452168  -0.0598365819607799   0.0000000000000000
  0.3969170552729402  -0.0580119076690758   0.0000000000000000
  0.0298553974799863   0.0284531857194991   0.0000000000000000
  0.9645418978552561   0.0049624144199126   0.0000000000000000
  0.3107174127482247  -0.0599745523566999   0.0000000000000000
  0.3532197168655907  -0.0593474025151865   0.0000000000000000
  0.9602493272443249   0.0055486932681955   0.0000000000000000
  0.0338165335406938   0.0300858994339835   0.0000000000000000
  0.0380150454409591   0.0316864823247920   0.0000000000000000
  0.9557225431564565   0.0061636004358678   0.0000000000000000
  0.0424489136491938   0.0332538049970267   0.0000000000000000
  0.0471161015618897   0.0347866669642923   0.0000000000000000
  0.9509632887889385   0.0068066585927330   0.0000000000000000
  0.9459737541185675   0.0074771441085412   0.0000000000000000
  0.0520144617255517   0.0362838733443521   0.0000000000000000
  0.9353156990700551   0.0088958033238094   0.0000000000000000
  0.0624935317401540   0.0391666944281135   0.0000000000000000
  0.0738633102849253   0.0418930490455120   0.0000000000000000
  0.9237713694002159   0.0104115616199952   0.0000000000000000
  0.0861021343485112   0.0444536401350998   0.0000000000000000
  0.9113626006299211   0.0120184567085017   0.0000000000000000
  0.0991843220904188   0.0468392525175462   0.0000000000000000
  0.8981160438094651   0.0137076731266115   0.0000000000000000
  0.1130825239435962   0.0490420513187447   0.0000000000000000
  0.8840586036192291   0.0154712343488011   0.0000000000000000
  0.1277704569818227   0.0510562821360933   0.0000000000000000
  0.8692172405930260   0.0173025513845012   0.0000000000000000
  0.1432165537277111   0.0528747486397878   0.0000000000000000
  0.8536242574066383   0.0191927758449732   0.0000000000000000
  0.1593891517258480   0.0544918666322352   0.0000000000000000
  0.8373107708732270   0.0211334928345504   0.0000000000000000
  0.1762568877862003   0.0559042074398506   0.0000000000000000
  0.8203090254010921   0.0231167394087162   0.0000000000000000
  0.1937838830953411   0.0571083152030304   0.0000000000000000
  0.2119350283118140   0.0581032137003017   0.0000000000000000
  0.8026551790260408   0.0251343402747870   0.0000000000000000
  0.2306739195716207   0.0588890258904683   0.0000000000000000
  0.7843840851007032   0.0271778200327233   0.0000000000000000
  0.2697570552113356   0.0598365818878674   0.0000000000000000
  0.7461418312636445   0.0313078740273454   0.0000000000000000
  0.3107174073396524   0.0599745523895525   0.0000000000000000
  0.3532197115457904   0.0593474026374948   0.0000000000000000
  0.7058944074605978   0.0354399891145804   0.0000000000000000
  0.6639684082655058   0.0395008030201497   0.0000000000000000
  0.3969170500997217   0.0580119078642495   0.0000000000000000
  0.6207078374111498   0.0434191086291270   0.0000000000000000
  0.5764634578798972   0.0471137381129498   0.0000000000000000
  0.5315950336908907   0.0505057458089039   0.0000000000000000
  0.4864703541532008   0.0535094607315534   0.0000000000000000
  0.4414549133024901   0.0560390636939180   0.0000000000000000
  0.9901595609719056  -0.0023783411927147   0.0000000000000000
  0.0326649145266362  -0.0334200843455863   0.0000000000000000
  0.9878329678703356  -0.0027145673674890   0.0000000000000000
  0.0733998606732272  -0.0440344159407381   0.0000000000000000
  0.9922372924577029  -0.0020726951087579   0.0000000000000000
  0.8846838814295012  -0.0208009306521702   0.0000000000000000
  0.9852539181750185  -0.0030832573491977   0.0000000000000000
  0.8205556230767344  -0.0253024477924150   0.0000000000000000
  0.9824277530968584  -0.0034836508822686   0.0000000000000000
 -0.0022154120548041  -0.0049277430541563   0.0000000000000000
[...]
POINT_DATA 4142
SCALARS continuity float
LOOKUP_TABLE default
0.009992532205280156
0.009442838758604192
0.010425088092021808
0.009023963900988313
0.008573963120069902
0.013149868443526815
0.008121662038661177
0.007677212386658012
0.013053923367728905
0.0072460994370876835
0.022432562096896227
0.006840313577206684
-0.18296656635967054
0.006479986160126287
0.006162092268061432
-0.08026503354878753
0.005885208461494937
-0.1822636122063616
-0.011014523493101058
0.005671711715333938
-0.010885985838436089
0.02207673975374646
-0.01113703915627998
0.005426486976053661
-0.011229718907109347
-0.009569554356847134
0.011977813249931604
0.005211497674440245
-0.011236596304978048
-0.011183189241865635
-0.009714601518365562
0.0048842956157789654
-0.011062465821823218
0.012755623956811103
-0.008588689140949297
-0.0043945648265072135
0.004811823526151445
-0.010934581320978581
-0.0029892521895528647
-0.0073502945482166815
-0.010700156637927529
-0.0016650134934276773
-0.010376164369813813
0.004906359994174953
0.010569958761823007
-0.0059071652999081
-0.0010096054621479087
-0.008962875126026826
0.00540304260022729
0.005059281377681314
0.005752911122170125
-0.01166980780292382
0.010425372336004208
0.00031841020916096566
-0.00946017414408738
-0.006194885720518401
-0.0063821939411265825
0.002228173395329402
-0.008199916910587558
-0.006763629353551871
-0.007623336113512656
0.006305440842781616
-0.008001492272408737
0.010112551293296834
-0.008022838734673141
0.00675922630801847
-0.0082558391664764
0.007290464268939324
0.00986788215004141
-0.0078054950656055834
0.007895977685563726
0.009536214419644175
-0.007196856336854516
-0.008456711949527225
0.008863490852452046
0.009136844026068566
-0.006550503444504334
0.01023510234164987
-0.005922119975497171
-0.004307160316447867
-0.00883595812380111
0.011296173260346183
-0.003910794904961997
0.008733005495709689
-0.0028926500620181177
-0.005333438148537331
-0.0047916335013038006
-0.009130071383184587
0.011671398651860822
0.01099478358192712
0.008339649379370368
-0.0036221388593051526
-0.009325067216047103
0.009002619797809001
0.005660204256942513
0.0013148835197711233
0.007971503124375081
-0.0032739548504401106
-0.003021548579886536
-0.009447923448757563
0.007620610236319805
-0.0058462053012344
-0.005754177035990636
0.007324949049230243
-0.009500455304994528
-0.009428085352883087
0.007094624163385161
-0.009244744991100735
-0.00789188766449102
0.006944639480936352
0.00685389883242383
-0.010744498224235954
0.006771788311294175
-0.007286009820741351
-0.007575735214575748
0.006670563869629262
-0.007127852849333691
0.006837104708404423
-0.006540250371387989
0.0069613128695302125
-0.0059315146191471
0.007352712722196616
-0.005368571416396275
0.007613761241307104
-0.00487631203160096
0.008173359950552546
-0.004466662260286021
0.008531284007708282
-0.004132209423385521
0.009251637604658013
-0.0038911497426443414
-0.002991576179575836
0.009739320054937481
-0.0040647916770018035
0.01076837031415206
-0.004279795843192323
0.01139910170832917
-0.007715903615841425
-0.007486565984841279
0.013139468333009977
0.0146431616592238
-0.003585594933611627
0.01535332933508137
0.014781891478956203
0.01247030881163614
0.008211370262842337
0.0024029265441717395
0.010454343638771485
-0.0034908733510186966
0.00963137713629129
-0.0067399054628083195
0.010841180110094979
0.005394214178705307
0.009171010677633443
0.006862220452529056
0.008692208204033635
-0.0022149512699557125
0.015471909140048722
-0.001450159663405775
0.008230072788349186
3.034020940087973e-05
0.007780217345175016
0.010351505464930173
0.017815520430649823
-0.0032478572427273866
0.007344595623094459
-0.00637578616797106
0.042282115675469044
0.005739582222977504
0.006937714222594392
0.006407376319019751
0.11656417806488291
-0.004012916537557252
0.006575919111480339
-0.0006371963305110136
0.006256408712897599
0.010211091083558594
0.07164765826639904
0.07046336139061998
0.026581045167459814
0.012810224505906498
0.019054520848734942
0.012754449606994433
0.02731239354453081
0.005974591989903904
-0.0008650419882905792
0.11432853347907128
-0.0018122846586144047
-0.004725556683313787
-0.0026077083779434225
0.005760670323901645
-0.0012658928973470905
-0.0037293383364696863
-0.001000066642578674
0.04091650192085029
-0.00453295550476361
-0.005590972011126496
-4.635317225484126e-05
0.005496606939757208
-0.0006970348374678854
-0.006357873461703615
-5.689200926093128e-05
-0.002430828174004257
0.005102458948497923
0.017513181445754072
-0.0011754963180107879
0.005290122762004478
-0.0018546827133226545
-0.006979312339115577
-0.000674960912842356
-0.007463672447176734
0.010779244292474281
-0.0015852032521312754
0.010812619798618476
0.004954180168760392
-0.0027720339361860203
-0.007850244545046717
-0.007917444972652803
0.015088563938679717
-0.0029616101039750885
-0.0006815356386980763
0.005855859729457906
0.0002910348735701158
-0.0036540585172952565
0.004879800331211292
0.005168278471739075
-0.008122982642630778
-0.00157507973605966
0.0003008182366484312
0.005507125345555805
-7.54957821463366e-05
-0.0016953781638589115
-0.00824906032462212
-0.006902792946338321
0.0006434636620922274
-0.004373622447668702
-0.008271889856966176
-0.000879618188476104
0.004973188574773407
0.01048294006304081
0.011066369875163472
-0.0023210925168610556
0.0002077211476991015
0.0055986448596497375
0.0008935966689143194
0.01030748197248926
-0.007781066081956088
-0.000985561866255161
0.005469455804477389
0.005015134397612014
0.005127197278278176
0.005256480056969813
0.005819856684495836
-0.007397500538905131
-0.008882576854877188
0.005237543257977388
0.010880627401286109
-0.001123389702243667
0.0016193991468541002
0.005943707399535423
-4.54378846495556e-05
-0.007207076190909615
-0.0004708621816535621
-9.00099240329824e-05
0.0003726022253500468
-0.0024275482823792054
0.002188171724564852
-0.005635586142390328
-0.001211617783563094
-0.001694453023622491
0.00010366802280125322
-0.0015397037080756661
-0.0018850748953560161
-0.006956985406136163
0.006371781314363925
0.010953288819149297
-0.006998595978992275
0.004921610409790384
0.010305361589996917
-0.00033062489669174295
-0.0030554613766801872
-0.0020888387744073074
0.00682510880874177
-0.0015154211761967725
-0.007201300294513144
-0.002466973190552829
0.007376677411937346
-0.0020686427258964288
0.010006806787151868
0.013351278855820473
-0.006949250011106222
-0.0012554761067010288
0.00793946728415485
-0.0065810831306406
0.009643440954491806
0.009967793854313038
-0.006507335169163651
0.004995296632051836
-0.0040599468369075745
-0.0008592605934146447
0.008938927956443873
-0.002587388689335572
0.009232600841282499
-0.0013819675960531049
-0.005982208709019453
-0.006110190436204113
0.010303659201681017
-0.0014668281947675967
-0.005445603016641684
-0.005547421003587071
-0.003999533712582394
0.005954217876040354
-0.004934891727418353
0.0053235562474165735
0.011366713812541479
-0.001976060145782615
-0.0036443571335314684
0.004270152135334696
0.008823645835665314
-0.004342633474880225
-0.002695787900351974
-0.002741445202362996
-0.004927078720528364
-0.003334463607089472
-0.004445281993422497
-0.00489865464993446
-0.0056584035100572545
0.0008932144595110653
0.011744581057369337
0.005522861587316419
0.011073248122581208
-0.0022928862125446837
0.008427915921739476
-0.004234239737604329
-0.0033077629038796817
-0.002477548463648872
-0.006236372260680962
0.0262317473926947
0.009087384837740773
-0.0004599808457253784
0.005750545485737628
-0.0031280418601782414
0.0014152509985319668
0.005599849840478544
0.008056408740029481
0.005784290084431136
-0.0030949823545297875
0.006496591364069116
-0.002905247857310781
-0.0036315530434986127
-0.006689160576786746
-0.0015669363946453647
0.007704812090083394
-0.041337899767405525
-0.005687307120646492
-0.004543224589556416
-0.005619743636384986
0.0059973399503856425
0.007409442158566581
0.00569671527012047
-0.007043915607716951
0.006273681102196363
-0.007236704464116023
0.010530103029751717
0.0071766467107073914
0.006591571784567617
-0.0073119825093113985
0.005135933898982059
-0.006835473706193768
-0.03438250618609372
0.007030167897186652
-0.00019476954659658355
0.006919467912128472
0.006949579610060427
-0.007990159322681444
0.0063087851240074076
0.006849888054778517
0.026848915094485344
-0.006267457610063578
0.006953674012692414
-0.006454227128804862
0.007354236025664055
0.006742495031933325
-0.003004441316370112
-0.00616967869314092
0.005448799639218163
0.0069075736111425855
-0.005236738517370145
-0.005728370039476283
0.007789620023571571
0.007028957991825199
0.007406685900391082
-0.005232440072966828
0.008246082689754795
0.007420258717055813
0.007508833453351096
-0.004757935710892311
0.013567429630976494
0.007683225208307027
-0.005059255195215607
-0.004335216948716047
0.008714350934970194
0.008240447848710161
0.010190355852192075
-0.003982512401726275
0.009197405552241624
0.00860098209415464
-0.0003428372678738259
-0.003694408731165189
0.010098910924877552
0.00932207205241109
-0.005358302464000192
-0.003499075856909795
0.009637554560219107
-0.0026821650166407003
0.012054455702980381
0.00983756900781191
0.010318404667843202
-0.0036224845826614547
0.008075863709036075
0.010806516635960942
0.013020430226820355
-0.0040077320286634
-0.0059199612558197496
0.01148453464208823
-0.030970937929579077
-0.007475571947163033
0.009794153703448553
-0.007285433380105613
-0.03433296103191242
0.013218563796805822
-0.001982837513650448
0.014723474461291028
-0.030121628703940598
-0.0034176618182660714
-0.005247617889050034
0.015440805246306902
-0.006221648005392099
0.01487923254651062
0.010610862980936312
0.012578158078638935
-0.0034982117311237494
0.008335449393140534
-0.00011589191589231446
0.0025460490554386063
-0.006858255142882265
0.007410691913891384
0.005434225668892314
0.010068835717307843
0.005008227286066016
-0.006560240572398689
0.006087341171340249
0.00797679578869287
-0.0026087446983816963
0.009695782273276205
0.00015975615831408406
-0.006202297128281124
-0.0033580339362938466
-0.0023781226903316207
-0.0025406021530942416
0.008981464166157955
0.012564112599665993
0.009276110600971117
-0.0017507297562208847
-0.005746620935588623
-0.0029597933986890822
0.010345324347366748
0.010898298432875745
-0.005262092008247908
0.005079153349572847
-0.0038889807355584724
-0.003927962710175072
-0.0033195375788643224
-0.0033273040724127265
0.011408192594698142
-0.0017237983071354474
-0.0035554231584566556
-0.0024902463254265674
0.00886196923498229
-0.001186648980531505
-0.002580692930693754
-0.0021555774795055335
-0.004778380944023378
-0.0013368814157955745
-0.004319351801908068
0.005402826445255351
-0.0041892376516917745
0.009474589037967317
0.011785850099040785
0.00923298264638035
0.011115646353814228
-0.004192713613021124
0.008465700866769892
-0.0030861524615095966
-0.00319878272025164
-0.002844410172266579
-0.004948964641448063
-0.0020379895026483926
0.009129734739138681
0.008240150867207955
0.0057915969092869534
0.005592798497114951
0.0014644708450360386
-0.004193513527216333
0.00809470952396866
-0.0021154290620758816
-0.002987345263492443
0.00625261111056199
-0.002852187156510654
0.017796147913712347
-0.005587284624713748
-0.0025583622856099734
0.007745758322919899
-0.002774563055842758
-0.005599632112209466
-0.003625523435019904
-0.005551261505414886
0.005850688200439879
0.0074528998048146375
-0.004150288320842184
-0.00607496086264963
-0.002394799560103774
-0.006411398665910492
0.0013442978796424571
0.007217750890382206
0.011683846808635785
-0.0066631021286213
-0.004173632782937078
-0.006207614617744072
0.006059113869148567
0.007067188008964489
-0.0015515278031084784
0.006954146368526878
0.006331398539780963
-0.007253338364272823
-0.004111682985933974
0.0068838202848127954
0.006642702421961841
-0.005877100512934101
0.005879993757492592
-0.006194326686532031
0.011345087421283252
0.006777640542365637
0.0066446483269408125
-0.005956602556372218
0.006998616330947433
0.006942431771607063
-0.004138444665691429
-0.0055677494540811185
0.01797924788900164
0.007063407179102525
-0.001802124029641794
-0.005110172005552455
0.007398145812276172
0.007455419307562524
0.006009541448595695
-0.004661432733120605
0.009258062244979846
0.007715929654495084
0.010510349521698095
-0.004255161776018035
0.007835832373327002
0.008273657037986546
0.005320187188990007
-0.0039048833305945514
0.008293421493619588
0.008632477524164617
-0.0037774239465485342
-0.0036174403884874974
0.01247162099746712
0.00935772331654977
0.006619099154235165
-0.0034320006389352126
0.008775165261017046
-0.0025793324350233196
0.007104146701520942
0.009870837893935017
0.009271839255647089
-0.003519521842739545
-0.002071562415959123
0.010840175186726258
0.010406823884342099
-0.003909343479104934
-0.0029325360058206473
0.011525238045085803
0.009754116635101995
-0.007408082664823216
-0.008559947344384072
-0.007232955561287777
0.010365026047824827
0.013264687895061304
0.007667639545289875
0.014767423338110909
-0.006092475069689914
-0.00337577505952961
-0.004595640712991227
0.015484783432119993
-0.008929103073405378
0.014922670533561479
0.010211995483245716
0.012618535370936355
-0.006119228136113091
0.008376686161120568
-0.002409693128996965
0.0025848848477717616
0.012831302569877284
0.005201317737760985
0.009085407521962553
-0.00831265862539445
0.009355415443616162
-0.0056331121820699165
-0.004992837494145719
-0.0009112297742921826
0.010453848107846754
-0.002631457651916229
-0.004662819413870184
-0.00017331212858286632
-0.003548977998394646
-0.0034527569526088824
-0.00027496106892507333
-0.0005745460694470686
0.011517917329540958
0.005515427380742536
-0.0032670999588544636
0.008688096700080758
0.008934047114099678
0.006872013958851492
-0.002293719239076073
-0.0051597341271154475
-0.004297213437828703
-0.005974092886049219
-0.003917431180634207
-0.0072612744763088845
-0.0006555090885208354
-0.004315097914177505
0.01189445602249682
-0.00441968326231487
0.01122340651822455
-0.005103640064554859
0.008535534342990148
0.006625834361454456
-0.0029239241506302787
0.014878587861427912
-0.0012291217610973602
-0.0017272360602415052
0.009237774585380054
-0.006017633646334214
0.005907929625183748
-0.0025011707172416025
0.0015905796071963713
0.005928367288606592
0.008169842486259503
-0.0030565697196702074
-0.0027012932263637663
-0.005703977747253076
-0.0026969395749490365
0.002023146012565874
-0.0019154755327829172
-0.007405465015031338
0.00782134589709394
-0.0037134821382990243
-0.005345527923053592
0.006127468757530743
-0.005349988370179618
-0.0005458929060092317
0.007529279243837729
0.006390502931559955
-0.00265105129292444
-0.0058647454898929485
-0.003320399365355843
0.006691447848390915
0.007299010013190751
0.0062280327990865405
-0.003959121653138573
-0.004798447215072793
-0.003893306445701104
0.006875095844597162
0.007146958393172119
0.007034740268215548
0.00703797439330897
0.010415746856210526
-0.005204311863185407
-0.008343563881390443
0.006964978723310937
0.015157910878858864
-0.0042915151143935685
0.0010930606545830866
-0.004951659560788205
0.00742695807989912
0.006858738406946405
0.00632982605761719
-0.005006716486651639
0.007256669236969816
0.007023836417278534
0.01042019279663684
-0.004842966872555557
0.00785196624489085
0.007147760767815077
0.005558674949085577
-0.004554593269477077
0.008293036987981884
0.007541504663333897
-0.006369109865801895
-0.004225933675131711
0.011893749064400225
0.007801528313775993
0.007011164169560263
-0.003897293774785342
0.008756256023114367
0.008363083188647475
0.007344286117297144
-0.003597470373772679
0.00923053114831944
0.008721277343105656
-0.0010425755583554797
-0.003342005342155527
0.010052662926740324
0.00945020762732625
0.0002812657340835367
-0.0031846063174871967
0.00966585739860084
-0.0023187629179390774
0.006915834926860193
0.009968972250166257
0.010222281555033862
-0.003248239098872831
0.007918750149351401
0.010947669799799704
-0.012012349048345727
-0.003632388071575712
-0.0034701206316179742
0.011633720485322045
-0.01311072661790123
-0.0071817337454013344
0.010157281503379252
-0.007069629531470744
-0.011520482196435382
0.013379553893625164
-0.00694080878908682
0.014883687169390586
-0.00029467143985754333
-0.003253180637321577
-0.0004182549677824141
0.015596311771027677
-0.0008698096426336846
0.01503085396686281
0.00992700562271887
0.012725952475048633
0.007140984102765908
0.008480878731805207
0.008500396554808219
0.0026921907837992114
0.005686059140864037
-0.009420398685346502
0.009830034339829478
-0.005394669377612424
-0.003797796531480959
0.010357217368207956
-0.0032128640816577593
0.0053670741676897634
0.009257290089950038
-0.009621397201867896
0.009401075684970174
-0.005603450477616562
-0.0038891823126084024
0.00012518658594631111
0.010629727785171628
-0.006522125526202656
-0.003840026517410616
0.0006619754608683014
-0.003178507440306429
-0.0073781989626251565
-0.002510121483055202
0.0003643862529079206
0.011688939676239263
0.005660120471540988
-0.0029718416240920973
-0.006675145854437131
0.008988788634696489
0.00703576401512689
-0.0019926393742874596
-0.004423354527005138
-0.003681668613393254
-0.006507492201186025
-0.0034489927523039072
-0.0098371574503407
-0.0017912998998649047
-0.007926902326856004
0.012060579830822184
-0.003436014865159589
0.011383370381170245
-0.008049202871894189
0.008599848189013983
0.007028404339487903
-0.002596081635232151
0.008826846617259791
-0.00114443430870073
-0.0005625036184459601
0.009393840080279391
-0.007312575962973341
0.006066025909893921
-0.0014222701454106592
0.001764676434292125
0.006016514789652561
0.008241597674784608
-0.0016621730854527285
-0.002306612425271848
-0.007868047820867634
-0.0024803042032206808
0.0016644687551539332
-0.0006941212363131607
0.0003838460180343543
0.007901328184737627
-0.0025146372543215422
-0.004977167564072547
0.00620343353507256
-0.005063149365839114
0.0002920965526593871
0.007614213982575741
0.006446508178957839
-0.0005066131743516227
-0.005469449806783739
-0.000552809377909154
0.00673207659806254
0.007390947352508217
0.00658939971243813
-0.0009050537662956286
0.00010491153314565443
-0.000791858503758444
0.007200174316771134
0.007244545632787799
0.007055319653362608
-0.002196334532860785
-0.00991449075469034
0.007078298513200405
0.008419448619816914
-0.0017399792642651588
0.00023069031723701872
-0.00291605909686449
0.007429679491959363
0.0069769160276657305
-0.006977085057465808
-0.0034727976351107107
0.006750940976701104
0.007147640977247731
0.010200758524027659
-0.003734432235837144
0.007835561950785715
0.007272133824794019
0.005833786240166528
-0.0037804240054740636
0.008255954134297265
0.0076723337843047894
-0.0064560671079802075
-0.003694310759837745
0.009943851617747796
0.007935243914245181
0.00743631848721829
-0.0035307711750940714
0.008689326131661332
0.008504767459644782
0.007679947499959051
-0.0033257622801814712
0.00912588414300227
0.00886761560413639
-0.00012304496193260063
-0.0031211339253079512
0.009580369068464852
0.00960345221579462
0.0012770162950803642
-0.0029947256157939854
0.009497834782578764
-0.0020912533590725035
0.00030027636527498
0.010128574731302905
0.009843913955342757
-0.002944510629000815
0.008270948012308777
0.011115120316244412
-0.0035853156324086376
-0.0032569816963688653
-0.0022583554657014593
0.01181013980339889
-0.004037612139076083
-0.006858574606579291
0.010004188294294312
-0.0068552413215639246
-0.0037440869229045273
0.013561174305667731
-0.009325541291154052
0.015061152944878293
0.0009946020598521385
-0.003109691869476108
0.0020317355441797575
0.015764507039077242
0.0012454596956748775
0.015185739538201836
0.008977326698531529
0.012861259477858945
0.007261723505762913
0.008600551558067498
0.008858922865806734
0.0028097661736824816
0.005799262976294164
-0.009691962795283234
0.009814297290533838
-0.00900713547503372
-0.0011276494336283957
0.009815707012475862
-0.006586884126737645
0.005571014009183312
0.009521488333789865
0.0013634919847610115
0.009400174577382714
-0.004507280339428123
-0.0017482495517110164
0.0009493906940194112
0.010897269703848328
-0.009279901530323825
-0.0022238910025206746
0.0011403692551479776
-0.0026411473844519077