# vtk DataFile Version 1.0
GRUMMP topologically 2D mesh
ASCII

DATASET UNSTRUCTURED_GRID
POINTS 4142 float
  0.9902132100051211  -0.0013897599745845   0.0000000000000000
  0.9878682672001325  -0.0017209544766007   0.0000000000000000
  0.9922830260938109  -0.0010965337451688   0.0000000000000000
  0.9852627687065505  -0.0020876945602550   0.0000000000000000
  0.9824126515147726  -0.0024873693035198   0.0000000000000000
  0.9941016532545700  -0.0008382294190312   0.0000000000000000
  0.9793229395886266  -0.0029189889321549   0.0000000000000000
  0.9759912936709813  -0.0033826574903297   0.0000000000000000
  0.9957253756688895  -0.0006072067599891   0.0000000000000000
  0.9724158418644283  -0.0038783672872607   0.0000000000000000
  0.9972114818934485  -0.0003956828894990   0.0000000000000000
  0.9685983419668763  -0.0044053177853816   0.0000000000000000
  0.9986172604849257  -0.0001958749290171   0.0000000000000000
  0.9645418982154840  -0.0049624143705746   0.0000000000000000
  0.9602493276520160  -0.0055486932126648   0.0000000000000000
  1.0000000000000000   0.0000000000000000   0.0000000000000000
  0.9557225436143375  -0.0061636003738353   0.0000000000000000
  0.9986172604763917   0.0001958749302285   0.0000000000000000
  0.0136778115501445  -0.0198442283865115   0.0000000000000000
  0.9509632892996972  -0.0068066585239019   0.0000000000000000
  0.0111799405480040  -0.0180409152078963   0.0000000000000000
  0.9972114818757430   0.0003956828920181   0.0000000000000000
  0.0164236219435115  -0.0216216850259729   0.0000000000000000
  0.9459737546847580  -0.0074771440326796   0.0000000000000000
  0.0194159763686392  -0.0233724637256901   0.0000000000000000
  0.0089312659290954  -0.0162123970812813   0.0000000000000000
  0.9957253756403164   0.0006072067640564   0.0000000000000000
  0.9353156997544615  -0.0088958032333210   0.0000000000000000
  0.0226532123065557  -0.0250954152174871   0.0000000000000000
  0.0261336316774566  -0.0267893559859237   0.0000000000000000
  0.0068429846519911  -0.0142695304151425   0.0000000000000000
  0.9237713702124288  -0.0104115615140689   0.0000000000000000
  0.0298554003449755  -0.0284531869488138   0.0000000000000000
  0.9941016532123735   0.0008382294250309   0.0000000000000000
  0.0050308200222286  -0.0123013782195995   0.0000000000000000
  0.0012596550434314  -0.0062543845982477   0.0000000000000000
  0.9113626015789812  -0.0120184565864932   0.0000000000000000
  0.0338165365583016  -0.0300859006297539   0.0000000000000000
  0.0005600587198625  -0.0041872521188657   0.0000000000000000
  0.0034956879705714  -0.0103096477045821   0.0000000000000000
  0.0380150486067802  -0.0316864834866382   0.0000000000000000
  0.0001400674572995  -0.0020989425108620   0.0000000000000000
  0.0424489169588349  -0.0332538061244847   0.0000000000000000
  0.8981160449036193  -0.0137076729882106   0.0000000000000000
  0.9922830260341767   0.0010965337536290   0.0000000000000000
  0.0022384105171692  -0.0082946477552229   0.0000000000000000
  0.0000000000000000  -0.0000000005380880   0.0000000000000000
  0.0471161050109934  -0.0347866680569130   0.0000000000000000
  0.8692172420003259  -0.0173025512123363   0.0000000000000000
  0.8840586048664243  -0.0154712341935952   0.0000000000000000
  0.8536242589802903  -0.0191927756559575   0.0000000000000000
  0.0520144653095357  -0.0362838744017245   0.0000000000000000
  0.9902132099234322   0.0013897599861408   0.0000000000000000
  0.0001400673054027   0.0020989413744649   0.0000000000000000
  0.0005600583994229   0.0041872509286527   0.0000000000000000
  0.0089312642537700   0.0162123956290166   0.0000000000000000
  0.0068429832427153   0.0142695290019493   0.0000000000000000
  0.0022384098100130   0.0082946464730838   0.0000000000000000
  0.0034956870455263   0.0103096463775504   0.0000000000000000
  0.0050308188630767   0.0123013768482443   0.0000000000000000
  0.0111799386902237   0.0180409137864515   0.0000000000000000
  0.8373107726191357  -0.0211334926288444   0.0000000000000000
  0.0624935355792051  -0.0391666954139108   0.0000000000000000
  0.9878682670932252   0.0017209544916756   0.0000000000000000
  0.0136778095139640   0.0198442269960848   0.0000000000000000
  0.8203090273240524  -0.0231167391866414   0.0000000000000000
  0.0738633143603066  -0.0418930499584099   0.0000000000000000
  0.8026551811301268  -0.0251343400368426   0.0000000000000000
  0.9852627685719384   0.0020876945791685   0.0000000000000000
  0.0861021386417074  -0.0444536409739349   0.0000000000000000
  0.7843840873894279  -0.0271778197795966   0.0000000000000000
  0.9824126513500548   0.0024873693265746   0.0000000000000000
  0.0991843265815398  -0.0468392532814141   0.0000000000000000
  0.0164236197329729   0.0216216836667636   0.0000000000000000
  0.7461418339277840  -0.0313078737465108   0.0000000000000000
  0.9793229393907722   0.0029189889597428   0.0000000000000000
  0.1130825286139299  -0.0490420520078216   0.0000000000000000
  0.7058944105034720  -0.0354399888107516   0.0000000000000000
  0.1277704618123611  -0.0510562827506626   0.0000000000000000
  0.1762568929815641  -0.0559042078350805   0.0000000000000000
  0.0194159739879911   0.0233724623981675   0.0000000000000000
  0.6639684116827792  -0.0395008026994765   0.0000000000000000
  0.1937838883744062  -0.0571083155282771   0.0000000000000000
  0.9759912934368556   0.0033826575228533   0.0000000000000000
  0.2119350336566717  -0.0581032139582273   0.0000000000000000
  0.1432165586985055  -0.0528747491799113   0.0000000000000000
  0.1593891568184451  -0.0544918670991958   0.0000000000000000
  0.0226532097601106   0.0250954139222151   0.0000000000000000
  0.6207078411914361  -0.0434191082996254   0.0000000000000000
  0.5764634620046084  -0.0471137377839725   0.0000000000000000
  0.9724158415910057   0.0038783673250912   0.0000000000000000
  0.2306739249637577  -0.0588890260835713   0.0000000000000000
  0.0261336289695199   0.0267893547234291   0.0000000000000000
  0.5315950381341085  -0.0505057454921963   0.0000000000000000
  0.4864703588817339  -0.0535094604401647   0.0000000000000000
  0.4414549182767121  -0.0560390634426787   0.0000000000000000
  0.9685983416513994   0.0044053178288238   0.0000000000000000
  0.2697570606452168  -0.0598365819607799   0.0000000000000000
  0.3969170552729402  -0.0580119076690758   0.0000000000000000
  0.0298553974799863   0.0284531857194991   0.0000000000000000
  0.9645418978552561   0.0049624144199126   0.0000000000000000
  0.3107174127482247  -0.0599745523566999   0.0000000000000000
  0.3532197168655907  -0.0593474025151865   0.0000000000000000
  0.9602493272443249   0.0055486932681955   0.0000000000000000
  0.0338165335406938   0.0300858994339835   0.0000000000000000
  0.0380150454409591   0.0316864823247920   0.0000000000000000
  0.9557225431564565   0.0061636004358678   0.0000000000000000
  0.0424489136491938   0.0332538049970267   0.0000000000000000
  0.0471161015618897   0.0347866669642923   0.0000000000000000
  0.9509632887889385   0.0068066585927330   0.0000000000000000
  0.9459737541185675   0.0074771441085412   0.0000000000000000
  0.0520144617255517   0.0362838733443521   0.0000000000000000
  0.9353156990700551   0.0088958033238094   0.0000000000000000
  0.0624935317401540   0.0391666944281135   0.0000000000000000
  0.0738633102849253   0.0418930490455120   0.0000000000000000
  0.9237713694002159   0.0104115616199952   0.0000000000000000
  0.0861021343485112   0.0444536401350998   0.0000000000000000
  0.9113626006299211   0.0120184567085017   0.0000000000000000
  0.0991843220904188   0.0468392525175462   0.0000000000000000
  0.8981160438094651   0.0137076731266115   0.0000000000000000
  0.1130825239435962   0.0490420513187447   0.0000000000000000
  0.8840586036192291   0.0154712343488011   0.0000000000000000
  0.1277704569818227   0.0510562821360933   0.0000000000000000
  0.8692172405930260   0.0173025513845012   0.0000000000000000
  0.1432165537277111   0.0528747486397878   0.0000000000000000
  0.8536242574066383   0.0191927758449732   0.0000000000000000
  0.1593891517258480   0.0544918666322352   0.0000000000000000
  0.8373107708732270   0.0211334928345504   0.0000000000000000
  0.1762568877862003   0.0559042074398506   0.0000000000000000
  0.8203090254010921   0.0231167394087162   0.0000000000000000
  0.1937838830953411   0.0571083152030304   0.0000000000000000
  0.2119350283118140   0.0581032137003017   0.0000000000000000
  0.8026551790260408   0.0251343402747870   0.0000000000000000
  0.2306739195716207   0.0588890258904683   0.0000000000000000
  0.7843840851007032   0.0271778200327233   0.0000000000000000
  0.2697570552113356   0.0598365818878674   0.0000000000000000
  0.7461418312636445   0.0313078740273454   0.0000000000000000
  0.3107174073396524   0.0599745523895525   0.0000000000000000
  0.3532197115457904   0.0593474026374948   0.0000000000000000
  0.7058944074605978   0.0354399891145804   0.0000000000000000
  0.6639684082655058   0.0395008030201497   0.0000000000000000
  0.3969170500997217   0.0580119078642495   0.0000000000000000
  0.6207078374111498   0.0434191086291270   0.0000000000000000
  0.5764634578798972   0.0471137381129498   0.0000000000000000
  0.5315950336908907   0.0505057458089039   0.0000000000000000
  0.4864703541532008   0.0535094607315534   0.0000000000000000
  0.4414549133024901   0.0560390636939180   0.0000000000000000
  0.9901595609719056  -0.0023783411927147   0.0000000000000000
  0.0326649145266362  -0.0334200843455863   0.0000000000000000
  0.9878329678703356  -0.0027145673674890   0.0000000000000000
  0.0733998606732272  -0.0440344159407381   0.0000000000000000
  0.9922372924577029  -0.0020726951087579   0.0000000000000000
  0.8846838814295012  -0.0208009306521702   0.0000000000000000
  0.9852539181750185  -0.0030832573491977   0.0000000000000000
  0.8205556230767344  -0.0253024477924150   0.0000000000000000
  0.9824277530968584  -0.0034836508822686   0.0000000000000000
 -0.0022154120548041  -0.0049277430541563   0.0000000000000000
[...]
POINT_DATA 4142
SCALARS continuity float
LOOKUP_TABLE default
-0.0038314353309392827
-0.003441072688564532
-0.005587340952492076
-0.0027780365054090013
-0.0023136881411879424
-0.00033266873537271264
-0.0019319183028641772
-0.0016514388661594997
-0.008240049765545154
-0.0014629839534386106
-0.010416278763414725
-0.0013147552454434398
0.47893259450460146
-0.001226830818250684
-0.0011645977219403988
0.11516692605275816
-0.0011292032356916412
0.4699592154367569
0.006564895505670606
-0.0011223653967022199
0.007061511702573776
-0.01012188806601002
0.006120302813396687
-0.001168459368995515
0.005629453868382302
0.007169926277624451
-0.011078942569796281
-0.0011957044127450926
0.005092405779356527
0.004566376926080429
0.0072067318093717815
-0.001249135978400466
0.004081513577364828
-0.0022515175992891393
0.007045730829552784
0.006281326523619403
-0.0013034199587514744
0.003636039784511421
0.006052400214225345
0.006833343738175803
0.003247526165650633
0.00581949222829256
0.0029775617704216883
-0.001373580451654866
-0.0067401107757877375
0.006560415985974464
0.0056947943979071235
0.00244963305297353
-0.001537151298145063
-0.0014430492951301097
-0.0016514999604640352
0.0022660911429752883
-0.004777437868263741
0.006394782208603586
0.005518687153708121
0.00668679154312881
0.006496349224294647
0.005798238356796051
0.007877836799249159
0.006491082862937358
0.006533517432832857
-0.0017439899039439373
0.0012360803646241745
-0.004112587578037524
0.0061407675913089715
-0.0018877157395994254
0.0017502144462148504
-0.0019020193311138733
-0.0032859310516340327
0.0011044988617974713
-0.002078629186179857
-0.002706756928569161
0.0006740487093804267
0.005791310099179585
-0.0021677831759811914
-0.002242074727031388
0.00043137616667447205
-0.0024537090846477616
0.00031439378532269554
0.00040009987596746475
0.005375561575589701
-0.002593671813653622
0.00034850684574735
-0.001888444258353545
4.8315376156701206e-05
0.0002942392977448034
0.00032310600646481743
0.004888947152512328
-0.002467782297362129
-0.0020595928666556013
-0.0016182794909593268
0.000638062965025702
0.004403188423463218
-0.0013323871835367084
-0.00029870795453490733
0.000878056836416091
-0.0014302050983182213
0.0007676530437812681
0.001864029678236388
0.003943569335297546
-0.001285079786613399
0.002038987227318842
0.0022705035584420145
-0.0011892692003183077
0.0035008254422578973
0.0031120077490656485
-0.0011182424150988116
0.0028381649863620626
0.002313562504406798
-0.0010448252251699871
-0.0010490425990684344
0.0021188495769409923
-0.0010464016285336084
0.0010661476375923337
0.0015052948994642543
-0.001029399331475907
0.0007923246039903875
-0.0010337628246926802
0.000309165094983102
-0.0010409798484803383
2.447789095647623e-05
-0.0010736700196803362
-0.0001341832261567207
-0.0011266671706203074
-0.00019599459808072392
-0.0011757900269583356
-0.00021292325999468012
-0.0012609075538903653
-0.0001827985171514545
-0.0013287821080904037
-0.00027978893143160844
-0.0006227149033150093
-0.0014010313875534022
-6.993278289805687e-05
-0.0014731857101759978
-9.577621596020829e-05
-0.001574411605557143
0.000980512917235264
0.0011104530985432222
-0.0018676526181356245
-0.0020466941638904524
0.0008041445332451984
-0.0020418597582515315
-0.0018279389015058425
-0.0013896056131230115
-0.0007147371742402462
9.684926659019594e-05
-0.003071032855592336
0.006048084337336562
-0.0033381079700955806
0.0017579775469049857
-0.005927464119170068
-0.0014936734544687298
-0.00269742074886416
-0.0019085303461283168
-0.0022853063786208152
0.00483667792646807
0.005104131919861977
0.008345736265969364
-0.0019137567036292052
0.00193035379358417
-0.0016416498935980996
-0.003957490570420192
-0.023458699308961446
0.006658536367333654
-0.001458075411431097
0.0011146189190426395
0.053257479613462416
-0.0015923687781107742
-0.0013115151853592226
-0.0017649869822339889
-0.07089027462950606
0.005451762296866277
-0.0012270217475254307
0.009048096484705243
-0.0011682983382831271
-0.004287395653469279
0.14774135235043206
0.14574386490972052
0.07949654432862745
0.08638144693668505
0.07686068160922974
0.0864426439659629
0.08019812513943624
-0.0011358330400179169
0.00941919654272702
-0.07301848307408193
0.004488518641292601
0.0068780747452234095
0.009407035272262627
-0.0011291211281305464
0.005181975133049552
0.007921487321331603
0.004885907737945193
0.05041792348937486
0.004934731856038945
0.00604639034585216
0.009280246671918183
-0.0011776033462747202
0.0032841230468700273
0.005295995352058997
0.009282271857865412
0.008561516350168026
-0.0014017483152914392
-0.024872578096674924
0.006588967449514622
-0.0012055667564640402
0.002543776210935125
0.004590030833053273
0.006239526469191952
0.003964194605075444
-0.00599643819412471
0.009288121347927478
-0.004398808536640793
-0.001257226935486302
0.0033805421655290664
0.0034236207660055143
0.002765805572018245
0.0030571909145244145
0.00607431736681698
0.009698897245017657
-0.0016713769193753265
0.008638963719410999
0.004117862087006556
-0.0013110709223568347
-0.0014603823366311154
0.0029546259255181836
0.0043278868602479315
0.007749839211315491
-0.0015567167287790218
0.009767156417018084
0.0032549583446843345
0.0025704056284974537
0.002433764913663531
0.0069218449708257895
0.004046060020217811
0.0023511062740772994
0.0057639921512957085
-0.00138123435800554
-0.005415645302854774
-0.006914180301495008
0.007950156114619248
0.00939940137994938
-0.0015693820402555687
0.006677226408000274
-0.007375705888197524
0.0017136436980388723
0.0019156110919712078
-0.0015456216451453608
-0.0013915060897435765
-0.001449091888314466
-0.0014713241413655184
-0.00165984368691066
0.0032379460571285864
0.001952038243949067
-0.0014205596511000812
-0.004041753093035751
0.005973005050150242
0.007659916827447213
-0.0016850868790958973
0.008144730866029229
0.003633697570651466
0.008443303877027056
0.0031955620211196315
0.009103369989229214
0.008639566635494022
0.006898176996353555
0.0042067007013265306
0.011058246841958075
0.006445931374320561
0.00990825534734527
0.0057438592571974895
0.007663731024004239
0.004165469585951564
-0.0017524820454745654
-0.0037555306799552444
0.0006150497822912169
-0.001319316805721637
-0.0039903774567725675
0.004356682685421418
0.006667841472418534
0.007156990341975143
-0.00189658738468397
0.004538121458465156
0.0013149658988770934
0.009139042269450986
-0.0019056283224078614
0.0027418819274528093
-0.0032061251267556856
-0.004139421368078467
0.0007343830600943532
0.005087496787987095
-0.0020942570306163306
0.004788722989064164
-0.002677592396107576
-0.003477883746356041
0.0003436145153899612
-0.0012643591222688524
0.005899851053950208
0.007822207763358006
-0.002176033216084953
0.009417323602140143
-0.0022254943290273546
0.00596424293524264
0.00013975275335126024
0.005485220149677542
-0.0024636419786915843
0.007364158936123505
5.958312335430253e-05
0.006245399759578086
0.00022810602138572745
-0.0016259731594449498
0.005198301719491977
-0.0012098385865680875
-0.0026056765454961707
0.0034563975479983224
0.00019764262542250284
-0.023014608380842176
-0.001879195796090645
0.004512127463110436
-9.9709901636545e-05
0.00928370622505773
7.195642380796885e-05
0.00666596125927155
0.00012717554335104435
0.00702870003541377
0.004507128456721881
0.002087591573676245
-0.0024807624445502803
-0.001181957023903401
-0.002075750351397792
0.007076072034862323
-0.0016129091820296386
0.007779211943379078
0.000565583144550678
0.003064816704765675
0.00389214945595651
0.006484354062178714
-0.0013520906493708195
0.008223084264870152
-0.0003225275716441018
0.00919696376575468
0.0008481290448869698
-0.0015236813220762216
-0.0014300206991717192
-0.001132656899282849
0.0006779703332061434
-0.0017803629221637865
0.00182585930004671
0.008489019940173146
0.0033531396548144078
0.006103262016463698
-0.001287552672037388
-0.14658434149766617
0.0019746108464238268
0.002510753742544479
0.0022222074307080403
-0.0011402855405919343
-0.0011948780568352762
-0.0014848644229891739
0.002869612166554003
-0.0011733032924484167
0.00247171562523952
-0.0035906540449126816
-0.0011271070532876237
-0.0012324914209442556
0.002233265577363838
-0.0013438525179515052
0.0015918222470129428
-0.13357635154978226
-0.0010538684749438613
0.008274340740157163
-0.0010606731848729063
-0.0013159692317086511
0.0018041849192184855
-0.0017466731866098003
-0.0010593662489210196
0.006888881429417835
0.0004401826113244919
-0.0019241885182657483
0.001056434594319765
-0.0014605287721794796
-0.00104076689563547
0.0035940996283227375
0.00040545353892994864
-0.019894915476980565
-0.0010453062979803073
0.0029144617201356735
-4.04153168816303e-05
-0.001635122176688106
-0.001052343396789004
-0.0018034166034938525
-0.0002876745054290965
-0.001891564866137047
-0.0010839442291206618
-0.0019319984765637198
-0.0004092674170543468
-0.0025606801742069476
-0.0011376144236178813
0.004768920863618783
-0.00043817401834228575
-0.0022421306428876773
-0.0011861319750319486
-0.0028994966636770314
-0.00042659296142910267
-0.002639398344713006
-0.0012715576150723717
0.0050986439778150094
-0.0003717369670992257
-0.006276697462603226
-0.0013394236096399372
0.0020735927198243615
-0.0004459776852658568
-0.00333547777271195
-0.0007830911372820866
-0.004495542907270155
-0.0014082259419969571
-0.003515737734709284
-0.0001586073040488492
-0.002128579295732718
-0.0014879900727417384
0.034517812705897336
-0.0001973822207687804
0.00120365880925867
-0.001586481608773556
0.0385846124996525
0.0009082207338983997
-0.0024936359275793104
0.0010539334567557495
0.042728740160490365
-0.0018812921966523597
0.006125330684687927
-0.0020620376105672596
0.04005898708840333
0.0007578427933428986
0.0013820593569698757
-0.0020588577212666574
0.05338096447614443
-0.0018482837142297884
-0.003192993043351026
-0.0014145027388478702
0.003361988671437381
-0.0007446379294184208
0.00824804336716474
5.945160292741104e-05
0.05134971561438058
-0.001917233287698686
-0.0014484055612920318
-0.0031242397758736696
-0.0013278877246089649
0.0011009140764794536
-0.0017104914992523799
-0.0021115502440152804
0.005417337062285036
-0.0026230204750935225
0.0032971034723625254
0.0006054436024366187
0.007170455851584768
0.007664391942774029
0.00541582571870881
-0.0021887224624316678
-0.0026334704611276683
-0.0021952196517501616
0.0042346903288148635
0.0003087151284777372
0.006656573453968924
-0.002477051809561315
-0.0036596008842623394
0.00016168658918581062
-0.0012693041619579448
0.0002247694229740731
0.0015696584545774946
0.006934201677072226
0.0076297813174798475
-0.0026199506585298554
0.0026389673019948097
0.00016662045584261685
0.007225692709446688
-0.0018672791768366169
0.0021301295740688607
-0.00014496409581877886
0.0077248591842220965
0.00012748103717427414
0.0032807754282448876
0.0001483755369631355
-0.0012120859840171912
0.006173056623219761
-0.0025914744788008742
-0.002496172342613328
-0.014972906327068988
-0.0020912529621445936
0.004809974449932866
-0.001611812395836183
0.007885991439487393
0.0005339289400753978
0.0038783962174429015
0.005431162120296667
0.00808604313407269
-0.0013669535900128337
-0.002156424254167229
-0.0003360800782610157
-0.0011838982628388623
0.0008372409999912403
0.004574194392708526
-0.0014335320558048357
0.008276450354406124
0.0006466197952320392
-0.0016677868497832794
0.0018212926792693389
0.009348984937416814
0.004743976233680124
0.0021980872509692077
-0.0012925444066278259
0.0083069031459141
0.001970169945679923
0.003685983352762588
0.0022243751163955774
-0.0011308052694338805
-0.0012014110372065951
0.0040343761734293404
0.004111602035731623
0.008326892383113276
0.00357076013938258
0.0021474384100371633
-0.0011324952213422168
-0.044256525845480704
0.0031565841482269225
0.004420856396174782
0.0023495465811624043
-0.001135637405732796
-0.0010586504114882302
0.0024531864266428703
-0.0010668102014769918
-0.0011664155486008306
0.002650007799975252
0.00505495113186333
-0.0010638244402406095
-0.0012230137436670327
0.000969229605560278
-0.0015635131420083902
0.0015295071880219078
-0.04331749506812469
-0.0010485577942650458
-0.0018058255421661592
0.0007976351975838332
-0.001299222279371634
-0.0010542586269451368
0.0034547931911794246
0.0002449693469310395
0.011114953573017828
-0.001063311848082259
0.004090854409331067
-9.738930243189578e-05
-0.0014345278057469445
-0.001095337722254143
-0.0015286713463520602
-0.0002872964244697723
-0.013789446054493934
-0.0011488969986124034
-0.003331994614594104
-0.00036538178983305233
-0.0015923734353411796
-0.0011989192864478042
-0.001366639648077963
-0.00039014993525770115
-0.0018205957994670036
-0.0012843789313265277
0.005224912793876625
-0.0003604438108524658
-0.0012334009585879793
-0.001351938281203686
-0.0017910607017515626
-0.0004636720538726528
-0.002133042044880475
-0.000815774748068478
-0.0019522502783733038
-0.0014196165920855766
-0.0024465849565953567
-0.00017751013055010054
0.002930697463404033
-0.0015056200960942509
-0.005127985442545012
-0.00021745592312920383
0.004292072177048744
-0.001599546450711955
-0.0030240384759261424
0.0009110725273440177
-0.0009964009428734808
0.0010599616172968427
-0.0029674979767953247
-0.0018949233401720218
-0.0019615332843427786
-0.0020774338181170074
0.038863537477581596
0.000756031472923499
0.0038027463944051076
-0.0020743572176343205
0.03927744869075628
-0.0018640042735741107
-0.002705269943508438
-0.0014295975783490023
0.038849925143125415
-0.0007578227343579394
0.0025677882793379695
5.0290095070943476e-05
0.034063412359998366
-0.001280890271981944
-0.0022042652101693532
-0.0008695759919622175
-0.0021134593887218475
0.004934956927190031
0.000901814222674883
0.0019351246205940719
-0.0024918659963809957
0.006031336059597979
0.0006035194078265118
0.0021177796331109684
0.0003673965004501376
0.005854424903182477
0.008056226278761064
0.002576407294949128
-0.0026357221193270015
-0.0012203447570690892
0.0002409103786788933
-0.0018518746821433135
-0.001818313049542215
-0.012484643856126968
-0.00012397939567017756
0.003353114501436038
0.00044849147436436054
0.00495131841423151
0.0003720376237181043
0.0008083464872046899
0.007697649551821834
0.005634331075947393
-0.00251142000651084
0.0034555683620560527
-0.0021041755726340376
0.005393258064973994
-0.001580134072205132
-0.001717227703698553
0.0005380021707069752
-0.003115885088472442
0.007206816510705525
0.002000337268005628
-0.0013760590378182086
0.0051352195194678575
-0.00033716827484079937
0.003521770918219741
0.0008475699917322339
-0.001132125326533248
-0.0014155901844459587
0.00312680204054296
0.0006536343826986084
0.005207096440356256
0.001845548424169974
0.002944691913571294
0.006640874029129232
-0.04870420778037587
-0.0012829091815282946
0.00343290699230635
0.00200931133312453
-0.0011342703195635203
0.0022629432800508704
0.002410069489207953
-0.0011963583489024402
-0.0011616871373341627
0.006020991062146001
0.0031689996357983563
0.0054174412940005846
-0.001209866471484635
-0.0011305720484579983
-0.0016091915579212646
0.004888533574121979
-0.043836837529678756
0.003992200013823195
-0.0018415910185984148
-0.0010565533062911621
-0.0012749112951043371
-0.0010694916459489045
-0.003676815225430893
0.004120877172461787
0.0005257615476546616
-0.0010702959732446747
-0.0019039780868369018
0.0024059087422523234
0.004705262137643282
0.002715961172759622
-0.0013948225342996301
-0.0010557933686463734
-0.0015794594986059869
0.0017997822955124144
-0.010628564348208455
-0.0010644442225428321
-0.002928064230460551
0.0010488924467621328
-0.0015273330539214774
-0.0010750487874400807
-0.0013979306934169076
0.0005214219205492542
-0.0017258687591480202
-0.001109363551046436
0.002915867147842144
0.00017831665623881658
-0.0033890926564467904
-0.0011638479882255153
-0.0018414613731618159
-2.059347832315209e-05
-0.0020067271554547023
-0.001214057592137751
-0.001988800968432849
-0.0001430693133301912
-0.002294698037983173
-0.0013002772863594028
0.002847642063720303
-0.00019470491305536764
-0.004550414129594517
-0.0013686703348205276
0.005122296407055466
-0.0003663032290781092
-0.0028194637890399206
-0.0007713541277753653
-0.0017066036860167672
-0.001436791452369625
-0.002990017039889821
-0.00015106849048659318
-0.0019978771098074512
-0.001523253752629876
0.018022790586534682
-0.00018764402204872287
0.003603203685763801
-0.0016163996157838596
0.02364682470838112
0.0009687132801431199
-0.0024451516943152047
0.0011117969896543324
0.01902918299157548
-0.001912127504758311
-0.00030329367056070993
-0.002093176964553129
0.012131177650735844
0.0007866946051869126
0.004470158345035672
-0.0020910133943232634
0.010575867972484625
-0.0018780343787004861
-0.0034182150890361236
-0.0014381273505302303
-0.001074484368505978
-0.0007589756892652804
-0.0021926843648159933
6.150189076881543e-05
-0.0011874363405338206
-0.0008292346713210892
-0.0023419364835037854
0.0030535394694133377
0.002528391470738839
-0.002779471601514188
0.005452128433161181
-0.001298699744885783
-0.002228643783646551
-0.0014883470729758859
-0.002003404689167118
0.0037647357991509086
0.001870631100874848
0.0019454756236609075
-0.002517579434769197
0.0027237820691274907
0.0013920759737702697
0.0022203682553624845
0.000703254938738623
0.002531575420167337
0.005705608443798619
0.0025125792532345484
-0.0026595120588856452
-0.0012308277199014439
0.00045697591316657337
-0.00025777255728411265
-0.001742871852974671
-0.00724353021925634
5.574209899945316e-07
0.003110164610651678
0.001068420421855059
0.003487796631241633
0.0008424179925419295
-0.0007490793482478873
0.005929335273772463
0.0025086358872495624
-0.0025321458295558
0.003286102328340022
-0.002117944578106876
0.0026413317784873404
-0.0015310471976420397
-0.001766340878671349
0.0006027278301857497
-0.0014181289939786306
0.00610380200421492
0.002280937237532481
-0.0013773910670416766
0.0032373559191715287
-0.00032311917625397064
0.0035578088853989455
0.0008804660051144823
-0.0011373458850492525
-0.0013865988364093864
0.0029927057799293668
0.0006959350312561971
0.0028874995079863504
0.0019002732555156163
0.0022013578486197176
0.0061815883081252875
-0.013035263777054412
-0.0012660503786966239
0.003280848607180892
0.002077267517109836
-0.0011354219424471812
0.002333700918373301
0.0024980977761268042
-0.0011896007881031863
-0.0011549133917129611
0.006137359401037188
0.002771550745997757
0.005966999581937261
-0.00119253592090507
-0.0011285962544514202
-0.001660376290829336
0.005720155691067506
-0.011576778477972862
0.005155745911526609
-0.001887812497117608
-0.0010580803868563454
-0.0012390039876981759
0.005346623087291146
-0.0005096545640191371
-0.0010795868206771018
-0.0003355637143290605
0.0039999653654114314
0.0029567136934311256
0.004106615412036496
-0.0013392128842952366
-0.0010687628899922787
8.422751813500732e-05
0.0031037635745986784
-0.006177096107686425
-0.0010819081852143266
-0.0025353170010903913
0.0022130650899738944
-0.001440639750739839
-0.0010957296023360488
-0.0014358266708780403
0.0015109197366427003
-0.0016054896902516452
-0.0011323588333128425
0.0023214115766236228
0.0009896595581625667
-0.002783718375044908
-0.0011885518247868353
-0.0018890426734546194
0.0006255496482126771
-0.0018420641642301855
-0.0012397067166809743
-0.002034001095666307
0.0003563900625749864
-0.0020792721224626803
-0.001327723980381103
0.0028950068798537015
0.00017361028048894916
-0.0035973072039580042
-0.0013958992465594809
0.003930883715040332
-0.00011618946295969767
-0.002482959068864774
-0.0006098221758024723
0.003099470432261914
-0.0014649493339160503
-0.0026304980650380836
-4.6125039457728734e-05
-0.0020390578316205037
-0.0015514124278694925
0.016207155209546784
-0.00010083357880677146
0.003682205697980235
-0.0016414150598321334
0.019413426129307642
0.0010751267465607104
-0.0021797152996682477
0.0012072896867763327
0.016495823754388666
-0.0019365734295982066
-0.0015216471299280164
-0.00211752837908559
0.008882194674539573
0.0008545356417155535
0.0040521369861334445
-0.002110713913402391
0.008317634421619887
-0.0018905585079652275
-0.002553258233228442
-0.0014386839931267346
-0.0010767672419632838
-0.0007425650073466615
-0.0022318858498793876
0.00010113394367897647
-0.0011958106628000497