# vtk DataFile Version 1.0
GRUMMP topologically 2D mesh
ASCII

DATASET UNSTRUCTURED_GRID
POINTS 4142 float
  0.9902132100051211  -0.0013897599745845   0.0000000000000000
  0.9878682672001325  -0.0017209544766007   0.0000000000000000
  0.9922830260938109  -0.0010965337451688   0.0000000000000000
  0.9852627687065505  -0.0020876945602550   0.0000000000000000
  0.9824126515147726  -0.0024873693035198   0.0000000000000000
  0.9941016532545700  -0.0008382294190312   0.0000000000000000
  0.9793229395886266  -0.0029189889321549   0.0000000000000000
  0.9759912936709813  -0.0033826574903297   0.0000000000000000
  0.9957253756688895  -0.0006072067599891   0.0000000000000000
  0.9724158418644283  -0.0038783672872607   0.0000000000000000
  0.9972114818934485  -0.0003956828894990   0.0000000000000000
  0.9685983419668763  -0.0044053177853816   0.0000000000000000
  0.9986172604849257  -0.0001958749290171   0.0000000000000000
  0.9645418982154840  -0.0049624143705746   0.0000000000000000
  0.9602493276520160  -0.0055486932126648   0.0000000000000000
  1.0000000000000000   0.0000000000000000   0.0000000000000000
  0.9557225436143375  -0.0061636003738353   0.0000000000000000
  0.9986172604763917   0.0001958749302285   0.0000000000000000
  0.0136778115501445  -0.0198442283865115   0.0000000000000000
  0.9509632892996972  -0.0068066585239019   0.0000000000000000
  0.0111799405480040  -0.0180409152078963   0.0000000000000000
  0.9972114818757430   0.0003956828920181   0.0000000000000000
  0.0164236219435115  -0.0216216850259729   0.0000000000000000
  0.9459737546847580  -0.0074771440326796   0.0000000000000000
  0.0194159763686392  -0.0233724637256901   0.0000000000000000
  0.0089312659290954  -0.0162123970812813   0.0000000000000000
  0.9957253756403164   0.0006072067640564   0.0000000000000000
  0.9353156997544615  -0.0088958032333210   0.0000000000000000
  0.0226532123065557  -0.0250954152174871   0.0000000000000000
  0.0261336316774566  -0.0267893559859237   0.0000000000000000
  0.0068429846519911  -0.0142695304151425   0.0000000000000000
  0.9237713702124288  -0.0104115615140689   0.0000000000000000
  0.0298554003449755  -0.0284531869488138   0.0000000000000000
  0.9941016532123735   0.0008382294250309   0.0000000000000000
  0.0050308200222286  -0.0123013782195995   0.0000000000000000
  0.0012596550434314  -0.0062543845982477   0.0000000000000000
  0.9113626015789812  -0.0120184565864932   0.0000000000000000
  0.0338165365583016  -0.0300859006297539   0.0000000000000000
  0.0005600587198625  -0.0041872521188657   0.0000000000000000
  0.0034956879705714  -0.0103096477045821   0.0000000000000000
  0.0380150486067802  -0.0316864834866382   0.0000000000000000
  0.0001400674572995  -0.0020989425108620   0.0000000000000000
  0.0424489169588349  -0.0332538061244847   0.0000000000000000
  0.8981160449036193  -0.0137076729882106   0.0000000000000000
  0.9922830260341767   0.0010965337536290   0.0000000000000000
  0.0022384105171692  -0.0082946477552229   0.0000000000000000
  0.0000000000000000  -0.0000000005380880   0.0000000000000000
  0.0471161050109934  -0.0347866680569130   0.0000000000000000
  0.8692172420003259  -0.0173025512123363   0.0000000000000000
  0.8840586048664243  -0.0154712341935952   0.0000000000000000
  0.8536242589802903  -0.0191927756559575   0.0000000000000000
  0.0520144653095357  -0.0362838744017245   0.0000000000000000
  0.9902132099234322   0.0013897599861408   0.0000000000000000
  0.0001400673054027   0.0020989413744649   0.0000000000000000
  0.0005600583994229   0.0041872509286527   0.0000000000000000
  0.0089312642537700   0.0162123956290166   0.0000000000000000
  0.0068429832427153   0.0142695290019493   0.0000000000000000
  0.0022384098100130   0.0082946464730838   0.0000000000000000
  0.0034956870455263   0.0103096463775504   0.0000000000000000
  0.0050308188630767   0.0123013768482443   0.0000000000000000
  0.0111799386902237   0.0180409137864515   0.0000000000000000
  0.8373107726191357  -0.0211334926288444   0.0000000000000000
  0.0624935355792051  -0.0391666954139108   0.0000000000000000
  0.9878682670932252   0.0017209544916756   0.0000000000000000
  0.0136778095139640   0.0198442269960848   0.0000000000000000
  0.8203090273240524  -0.0231167391866414   0.0000000000000000
  0.0738633143603066  -0.0418930499584099   0.0000000000000000
  0.8026551811301268  -0.0251343400368426   0.0000000000000000
  0.9852627685719384   0.0020876945791685   0.0000000000000000
  0.0861021386417074  -0.0444536409739349   0.0000000000000000
  0.7843840873894279  -0.0271778197795966   0.0000000000000000
  0.9824126513500548   0.0024873693265746   0.0000000000000000
  0.0991843265815398  -0.0468392532814141   0.0000000000000000
  0.0164236197329729   0.0216216836667636   0.0000000000000000
  0.7461418339277840  -0.0313078737465108   0.0000000000000000
  0.9793229393907722   0.0029189889597428   0.0000000000000000
  0.1130825286139299  -0.0490420520078216   0.0000000000000000
  0.7058944105034720  -0.0354399888107516   0.0000000000000000
  0.1277704618123611  -0.0510562827506626   0.0000000000000000
  0.1762568929815641  -0.0559042078350805   0.0000000000000000
  0.0194159739879911   0.0233724623981675   0.0000000000000000
  0.6639684116827792  -0.0395008026994765   0.0000000000000000
  0.1937838883744062  -0.0571083155282771   0.0000000000000000
  0.9759912934368556   0.0033826575228533   0.0000000000000000
  0.2119350336566717  -0.0581032139582273   0.0000000000000000
  0.1432165586985055  -0.0528747491799113   0.0000000000000000
  0.1593891568184451  -0.0544918670991958   0.0000000000000000
  0.0226532097601106   0.0250954139222151   0.0000000000000000
  0.6207078411914361  -0.0434191082996254   0.0000000000000000
  0.5764634620046084  -0.0471137377839725   0.0000000000000000
  0.9724158415910057   0.0038783673250912   0.0000000000000000
  0.2306739249637577  -0.0588890260835713   0.0000000000000000
  0.0261336289695199   0.0267893547234291   0.0000000000000000
  0.5315950381341085  -0.0505057454921963   0.0000000000000000
  0.4864703588817339  -0.0535094604401647   0.0000000000000000
  0.4414549182767121  -0.0560390634426787   0.0000000000000000
  0.9685983416513994   0.0044053178288238   0.0000000000000000
  0.2697570606452168  -0.0598365819607799   0.0000000000000000
  0.3969170552729402  -0.0580119076690758   0.0000000000000000
  0.0298553974799863   0.0284531857194991   0.0000000000000000
  0.9645418978552561   0.0049624144199126   0.0000000000000000
  0.3107174127482247  -0.0599745523566999   0.0000000000000000
  0.3532197168655907  -0.0593474025151865   0.0000000000000000
  0.9602493272443249   0.0055486932681955   0.0000000000000000
  0.0338165335406938   0.0300858994339835   0.0000000000000000
  0.0380150454409591   0.0316864823247920   0.0000000000000000
  0.9557225431564565   0.0061636004358678   0.0000000000000000
  0.0424489136491938   0.0332538049970267   0.0000000000000000
  0.0471161015618897   0.0347866669642923   0.0000000000000000
  0.9509632887889385   0.0068066585927330   0.0000000000000000
  0.9459737541185675   0.0074771441085412   0.0000000000000000
  0.0520144617255517   0.0362838733443521   0.0000000000000000
  0.9353156990700551   0.0088958033238094   0.0000000000000000
  0.0624935317401540   0.0391666944281135   0.0000000000000000
  0.0738633102849253   0.0418930490455120   0.0000000000000000
  0.9237713694002159   0.0104115616199952   0.0000000000000000
  0.0861021343485112   0.0444536401350998   0.0000000000000000
  0.9113626006299211   0.0120184567085017   0.0000000000000000
  0.0991843220904188   0.0468392525175462   0.0000000000000000
  0.8981160438094651   0.0137076731266115   0.0000000000000000
  0.1130825239435962   0.0490420513187447   0.0000000000000000
  0.8840586036192291   0.0154712343488011   0.0000000000000000
  0.1277704569818227   0.0510562821360933   0.0000000000000000
  0.8692172405930260   0.0173025513845012   0.0000000000000000
  0.1432165537277111   0.0528747486397878   0.0000000000000000
  0.8536242574066383   0.0191927758449732   0.0000000000000000
  0.1593891517258480   0.0544918666322352   0.0000000000000000
  0.8373107708732270   0.0211334928345504   0.0000000000000000
  0.1762568877862003   0.0559042074398506   0.0000000000000000
  0.8203090254010921   0.0231167394087162   0.0000000000000000
  0.1937838830953411   0.0571083152030304   0.0000000000000000
  0.2119350283118140   0.0581032137003017   0.0000000000000000
  0.8026551790260408   0.0251343402747870   0.0000000000000000
  0.2306739195716207   0.0588890258904683   0.0000000000000000
  0.7843840851007032   0.0271778200327233   0.0000000000000000
  0.2697570552113356   0.0598365818878674   0.0000000000000000
  0.7461418312636445   0.0313078740273454   0.0000000000000000
  0.3107174073396524   0.0599745523895525   0.0000000000000000
  0.3532197115457904   0.0593474026374948   0.0000000000000000
  0.7058944074605978   0.0354399891145804   0.0000000000000000
  0.6639684082655058   0.0395008030201497   0.0000000000000000
  0.3969170500997217   0.0580119078642495   0.0000000000000000
  0.6207078374111498   0.0434191086291270   0.0000000000000000
  0.5764634578798972   0.0471137381129498   0.0000000000000000
  0.5315950336908907   0.0505057458089039   0.0000000000000000
  0.4864703541532008   0.0535094607315534   0.0000000000000000
  0.4414549133024901   0.0560390636939180   0.0000000000000000
  0.9901595609719056  -0.0023783411927147   0.0000000000000000
  0.0326649145266362  -0.0334200843455863   0.0000000000000000
  0.9878329678703356  -0.0027145673674890   0.0000000000000000
  0.0733998606732272  -0.0440344159407381   0.0000000000000000
  0.9922372924577029  -0.0020726951087579   0.0000000000000000
  0.8846838814295012  -0.0208009306521702   0.0000000000000000
  0.9852539181750185  -0.0030832573491977   0.0000000000000000
  0.8205556230767344  -0.0253024477924150   0.0000000000000000
  0.9824277530968584  -0.0034836508822686   0.0000000000000000
 -0.0022154120548041  -0.0049277430541563   0.0000000000000000
[...]
POINT_DATA 4142
SCALARS continuity float
LOOKUP_TABLE default
-0.0015369386766461175
-0.0015678407715750912
-0.0014763231056520052
-0.0016066235577549175
-0.0016421724494108674
-0.0015387913819259551
-0.0016767657621845598
-0.0017098183150920682
-0.0012677241415498138
-0.0017409926608247203
-0.0014961620064329229
-0.0017727415941070754
-0.006543342732031817
-0.001805014727385246
-0.0018374575142559102
-0.002695691739096203
-0.0018714141679909424
-0.012583497643958734
0.0027625985001413045
-0.0019063265266851734
0.0040704188905047655
-0.001569728190464236
0.0015500411645311472
-0.0019478361935407456
0.0004321105980332236
0.005487254798761986
-0.0013487809555130766
-0.002017530593546689
-0.0005889042480530331
-0.001519291652014607
0.006966857685788307
-0.002100032309891931
-0.002363817452751338
-0.0016225311016806535
0.008522697551939684
0.01266199786611747
-0.0021863414416039245
-0.003130577360378659
0.013581423749846921
0.010042344710562435
-0.003821580697867363
0.014142077311746794
-0.00443147647673718
-0.0022789082364331075
-0.0015110249678300968
0.011453311046628351
0.014313858532930511
-0.004924549050982321
-0.002484599871796274
-0.0023820614489796074
-0.0025968421409551263
-0.005695524556455467
-0.0015667066150781496
0.01409714481863229
0.012961358602012642
0.005032284787774399
0.006550556748070496
0.01160365196845216
0.009734976083266718
0.00814832593842118
0.0035860426098800317
-0.0027052721150389123
-0.006348391757889591
-0.0015926781283034977
0.002268140323193698
-0.0028306967499406857
-0.007065262478049243
-0.0029563165756970452
-0.0016280257165728867
-0.007621398314483866
-0.0031176232191456195
-0.0016612243151562047
-0.008074270188220248
0.0010542829398308873
-0.0033878805716345377
-0.0016939104647075319
-0.00843148172268444
-0.0037085457360394535
-0.008706841287210242
-0.009120057380315124
-5.568439086700575e-05
-0.004040952035403811
-0.00912590888241193
-0.001726443785998494
-0.009081909852445554
-0.008909416814304506
-0.009047340965104397
-0.0010659057835203335
-0.004404174576079284
-0.004813894936964691
-0.0017589048820487677
-0.009015315227901655
-0.0019816758947469467
-0.005273906900032099
-0.005784464474058929
-0.006346206212167021
-0.00179085466542778
-0.008681263483039837
-0.006955757626957026
-0.0028094943405831243
-0.0018233233256415183
-0.008203635883869458
-0.0075897670894940145
-0.0018568220794225225
-0.0035582668550299492
-0.0042302470565748615
-0.0018904214469820666
-0.004820552394794769
-0.005293073742599218
-0.0019278027160976531
-0.001974264977750276
-0.006039466591032656
-0.0020423191988119603
-0.006658900149229872
-0.00733883137963382
-0.0021319386216162
-0.007859105416444632
-0.0022218189683545623
-0.008278551373322186
-0.002323297319384465
-0.00860478637405044
-0.0024246528708209317
-0.00885195647368329
-0.0025381708179839876
-0.009029528829196286
-0.002649573334409545
-0.009146008519463617
-0.0027747505471152592
-0.00920101432938095
-0.0028966603308265954
-0.009193104500827004
-0.009138818884798115
-0.0030355092524826655
-0.00906404408444636
-0.003203027735975225
-0.008729487444367539
-0.0034687027592518243
-0.00826107576165529
-0.00766271842817993
-0.003803390262423619
-0.0041490062345720434
-0.007044864380493889
-0.004519265901732979
-0.004930640241085638
-0.005389620981119637
-0.00589578679523743
-0.006448721684491172
-0.0015591716638419897
-0.004529558398526782
-0.0015765608554651571
-0.0073623233253564384
-0.0014786524891845325
-0.002491494182577782
-0.0016142633247478316
-0.002847873617248135
-0.0016482503594046874
0.011138874407702764
-0.0016817444337971954
0.0010551000804559718
-0.0016822950856115392
0.010636562803385045
-0.0017148150070466527
-0.0016185122966588666
-0.0010993097644015355
0.008036576048438035
-0.001745654850064837
-0.006721507112369525
-0.0025555227931540483
-0.0025928632775998133
-0.0017771701515418277
-0.0027224006918859346
-0.0016128863346930628
-0.005122399550599258
-0.0018091421064625956
0.0022949035192211162
-0.0018413511122788962
-0.0017186058701449474
-0.0045624563476592914
-0.004886331418849488
-0.003205651655813363
-0.0025541193462104415
-0.0021869506650583873
-0.0025001220470800417
-0.0029541956366402567
-0.0018750212254953242
0.00671140025987183
0.00013182696144961923
0.01161344758503339
0.002363406598535857
0.008365348221663538
-0.0019099443354695903
-0.00668619969359166
0.0036208250784575575
0.009654681071790513
-0.002642788294178638
-0.005639331534048444
0.001202380475994389
0.005129905911809026
-0.0019511202687690226
0.009097218892297788
0.00013079423908324777
0.0036455212232923604
0.0049578251455352435
-0.0023300896746404846
-0.001050166200932046
0.011443540729340552
-0.002020751127788717
0.01120279074415172
-0.000849894330405448
0.012295573752848099
-0.001745367827506487
-0.0015690742621784185
0.006392046079484809
-0.0015957953906989566
-0.0021030258736694962
0.009215545556150256
-0.002560110926159827
-0.006042662351652543
-0.0017580323010262593
0.009300905704080804
0.007882131392448205
-0.002614169016569759
0.011915567454324708
0.009183329070150098
-0.0021892655723217904
-0.0023998588005983636
-0.003301307819110427
0.011727598033563907
0.01283288198794488
-0.002502032596104905
0.009350054737266895
0.009217974565092416
-0.003970952565340066
-0.005441331349446307
0.013396052213391026
-0.006088693807831291
-0.004562920769119129
0.012578543686513231
-0.0022817131035836632
-0.001629711918408862
-0.0015100800558984098
0.009836442736971738
0.010724726046920173
-0.0025343448982630885
0.01357027515746514
-0.0015102887933864436
-0.005073426882034962
0.010902487379703745
-0.0024873275790780343
-0.0022969934186739347
-0.0023849132143371125
-0.0024325084215299337
-0.002599570407247304
-0.004959816361990316
-0.005744012800197011
-0.002389643293804846
-0.0015907522127527305
0.012431952271606971
0.013342381017297728
-0.002646212304228292
0.012372487007789895
-0.004411742643312091
0.0045103700424101705
0.008855353988675705
0.005979955884143798
0.008478469184093965
0.010576110272203234
-0.006630133735785853
0.00912473911720974
0.011886325889632976
0.007519533337776984
-0.006178123764428774
0.0031409554802103844
-0.0037907309965239176
-0.002707910540053313
-0.0016420134379922095
-0.006448766077927215
-0.002204842199058248
-0.0016015216581695484
-0.006695767407775274
0.001871328295242721
0.010999014007109268
-0.0028333554948172554
0.011451175272919598
-0.007132995940264218
0.0070167212125193555
-0.0029589932825906913
0.01112484738024773
-0.0016359015378700967
-0.0016067734493568281
-0.0076759331996317575
0.010711840384142229
-0.0031205124406754737
-0.003101397722427227
-0.001667407766936178
-0.0018239557949577072
-0.008118883290649722
-0.002118985075509539
0.0007074871414652789
0.0032563347156114838
-0.0033907077774421963
0.005532911616138064
-0.0016995329761159284
-0.005587809454389911
-0.008468529625591352
-0.002341538689564625
-0.003711397849397009
0.0047917168987074805
-0.008738049654376323
-0.001503292566374581
-0.009139504506698693
-0.0026908301898227785
-0.0003566848015295995
-0.0020372779986677337
-0.004043960285482458
0.009215250071729977
-0.009142768871927717
-0.0010935817350756648
-0.0017316245546412795
0.008084362015962568
-0.009102244598706921
0.004097461932423128
-0.008935959278232684
0.007954945374028875
-0.009070172703783096
-0.0005797580080929038
-0.001326709974164115
0.010294613573554552
-0.004407318767371226
-0.0019681537928446426
-0.004817330440861031
0.006373268048986935
-0.0017637055458891485
0.0004381887013264842
-0.009020394234512313
0.01073696377347446
-0.0022075628641936027
-0.0019368324265187909
-0.005277719490834504
0.0018205540704988232
-0.005788763022578693
0.0027813393682309295
-0.006351201951932145
-0.0025896696319087447
-0.0017952954258193077
-0.0019271421095493192
-0.00869363350583828
-0.0027543400466376777
-0.006961583205642948
0.0015548752457886599
-0.0030051337113934586
-0.004905148227210626
-0.0018274865977005905
0.0016485890068591387
-0.008212188647907246
-0.007244757076044195
-0.00759678095414015
-0.0018922622683253908
-0.0018606721185286394
-0.0026432398814474206
-0.0037281985113322915
-0.0018586880275738476
-0.0043788470932830705
-0.0016636142634556894
-0.0018941419217877353
-0.0018266535236901554
-0.004951031671360554
-0.002298806782474399
-0.0054408073667308625
0.0024264213556652358
-0.001931524278370398
0.0004906745327884587
-0.0019775595125840666
-0.0017947280416096849
-0.006087234913838573
-0.0028027396907048846
-0.002045552765971774
-0.0018461895849200857
-0.006758186874655997
-0.0028799712795891763
-0.007405753568109632
-0.0017633296824811908
-0.0021349485487824004
0.010080563524219918
-0.007912868307324412
-0.0010170075666042814
-0.0022246750081204914
-0.007819846382446014
-0.008322514127271852
-0.0017327961841454179
-0.002326103752347796
-0.0038554468755940797
-0.008641192599443777
-0.0017007134728542466
-0.0024274649375901087
-0.0030058420715633966
-0.008882545630327313
-0.0015534358421487565
-0.0025409500368340676
0.006833327495342798
-0.009055512018213528
-0.0016671954923012453
-0.002652310246069512
-0.0016983435404732583
-0.009168271836917277
-0.001633552781304904
-0.002777447873909333
-0.007394324527317339
-0.009220003091892739
-0.0014780616307755263
-0.00289938266419643
-0.008266743671010364
-0.009209461905126167
-0.0015941861872413585
-0.009158539827209353
-0.001644908744524271
-0.003038249028286024
-0.0015673508361515327
-0.009068955948947688
-0.0031683282683687025
-0.0032059233920535505
-0.0024469951141525355
-0.008741422257197682
-0.004956158707154732
-0.0034715982361182766
-0.002007532352974769
-0.008269347351231979
-0.0017287569067214721
-0.007669483331385984
-0.0021308322151027677
-0.003806245198758364
-0.004123163152886396
-0.004151954766927397
-0.001971844090518358
-0.007050544569628302
-0.008625640218182915
-0.004522407194000184
-0.002660390182065565
-0.00493402728538606
-0.0017750271660084663
-0.005393324994576845
-0.008807626846651364
-0.00589997898991928
-0.0007149502347011552
-0.0064535843425056
-0.0026855351396500127
-0.0029734783880126974
-0.0024882409804458995
-0.0016550745496161092
-0.002238492375311464
-0.007869694176402592
-0.0027046433193369684
-0.003135579951363799
0.01035371905586221
-0.001686709577137997
0.007658309627608183
-0.00828225932368459
0.00663164754592619
-6.561747218971905e-05
-0.007234879463660656
-0.00340566304551168
-0.001639342120917881
-0.0017184700742421898
-0.006001706597826628
-0.008607364043379433
-0.003858754506795538
-0.0037267967026111052
-0.001696172612710697
-0.008857378217395165
-0.0021533389561607216
-0.009219991525032497
-0.00582458619123716
-0.0010768566027793427
0.005159790996424154
-0.004060034259204032
0.010944647804121197
-0.009213531655881716
-0.003101502065858254
-0.0017502487038733592
0.01085009020913225
-0.009166832629607458
-0.0022461258591519443
-0.009039697632441585
0.010341149459345594
-0.009161238041014142
-0.0020725656272024863
-0.0019896581189334833
-0.001962672997023707
-0.004424533154611907
-0.0012931503147870726
-0.0048360941470632825
0.0037000599116891325
-0.0017820993295442824
0.0036903865599048386
-0.009074688321219333
-0.005233814855330065
-0.002812665697156511
-0.0012831999961742896
-0.005298518621377201
-0.003228471865674699
-0.005812232974207577
-0.0020040583264218613
-0.006378101464784812
0.005169171474663998
-0.0018135276063986421
-0.00020349830733485668
-0.008743290154006959
-0.002846121929574273
-0.006992832929930712
-0.0018704914048224836
-0.0035548555105956196
0.00916602488255957
-0.0018455955129583104
0.002299856502804183
-0.008255342782434675
0.008271628323340212
-0.007633497142166149
-0.0019639553146381357
-0.0018786573391095724
0.008024805863104738
-0.004225046100332903
0.0009914791687605146
-0.004826031595720282
0.009866061240865552
-0.0019120410936429035
-0.0005167533090593864
-0.005353385751521773
0.006625428290597691
-0.005813243753526681
-0.0019293308519450676
-0.0019494574728089922
0.010530777487583408
-0.0019952133574434017
-0.0018961634326672726
-0.006389609136076064
0.002264818430826846
-0.0020626355835957058
-0.0018645563356849853
-0.007034100879076542
-0.0027447008493416652
-0.007637668313428822
-0.000796130430750295
-0.0021514780353447133
-0.0028128235262840444
-0.00810864319925878
-0.0018331677624032305
-0.0022408379994907197
-0.004386768367073087
-0.008487347105609633
-0.0018636067385669093
-0.002341906233336561
-0.007850283996972603
-0.00878101745047754
-0.0018023032664918374
-0.002442942441044813
-0.002876112578803463
-0.009002478674052202
-0.0012934093730035288
-0.00255618915159494
-0.0017247689020094487
-0.00915952971416819
-0.0017725064905933503
-0.002667361434638143
-0.0023982338660049804
-0.00925934555197587
-0.001741295789206969
-0.002792411216267491
0.0008824599473395427
-0.009300197636323868
-0.0016038370324606888
-0.002914250614964048
-0.0029589015243605657
-0.009279804254526137
-0.0017087111093315838
-0.009222514266940382
-0.00293862791448449
-0.0030530856478927873
-0.0016764296230448728
-0.009122526798596868
0.009979077544063812
-0.0032213223644953714
-0.0015409716120691047
-0.008790164236154427
-0.008397524918532911
-0.0034869172744381584
-0.0016390856841118568
-0.008311574366860232
-0.0023584796775314126
-0.007705414076021937
-0.0016145458483443032
-0.0038219294677500717
-0.003065189836767093
-0.0041682325343662865
-0.0022989930896598863
-0.0070812197322272
0.007185554540979011
-0.004539734402964659
-0.002349157917110925
-0.00495279028846929
-0.0017613002014897979
-0.005414038453965502
-0.0023411278568496656
-0.0059232373501142965
-0.0067217958649255305
-0.006480049614719879
-0.0025596829508472358
-0.0022145752863793507
-0.0034392136359301284
-0.004455945856046189
-0.0017598135118441847
0.00548354584265803
-0.00890454551427417
0.010665741431734915
-0.003761524683154546
-0.0032354822049533135
-0.009115760653337468
0.010599665776613865
-0.00939659229695543
-0.002238716817860872
-0.0017928520393873854
0.010165631081647745
-0.004096578869241128
-0.002134872700542098
-0.009370520640101868
-0.0021311500248087354
-0.001790987144892822
-0.00139920715016407
-0.009308282530208139
0.004429722336025707
-0.009265916989101456
0.00408731804332516
-0.009360686831593558
-0.0040676118556992194
-0.0027486419405036663
-0.001136089369882805
-0.004463791816544101
0.0057460084593841864
-0.0048789581231640095
6.725041623982702e-05
-0.0018223276745828047
-0.0030814560141104444
-0.009200833828955738
-0.0016646192418000153
-0.0035905759489655025
0.00923617005710355
-0.005346183137146233
0.0027042398010734734
-0.005866087229891514
0.008405255727541977
-0.006439721498301228
-0.0020280422613724995
-0.0018531680256045205
0.0082297818234576
-0.008853795570854044
0.0013520228330576652
-0.007064170841172526
0.00645322828021215
-0.0043306998388109854
-0.0004977781826354606
-0.0018847380080609843
0.007025817264930667
-0.008352140700483015
-0.001993950642190257
-0.007716643521529811
0.010335203484457182
-0.0019173665276574308
-0.0019613698219989105
-0.004982344636860822
0.0031149188092470955
-0.005554066887091417
-0.0019303570905985113
-0.001950266447912002
-0.0029788017633817577
-0.006048906220951319
-0.000378562524116853
-0.006474677783220713
-0.0029113233502442723
-0.0019874318727876334
-0.001899455268685676
-0.002032352367472022
-0.001706633646501092
-0.006989458877739029
-0.0031521890195243957
-0.0020989660716820976
-0.0016224806179130102
-0.007567807649270771
-0.008141563049293732
-0.008103998723803206
-0.0018691157064152403
-0.002186903190172178
-0.003207103637330278
-0.008512750680360595
-0.0013610228443428824
-0.0022755141354922873
-0.0018081546486494121
-0.008836226338656319
-0.0018396375448553593
-0.002376001107106906
-0.0025535540508985714
-0.009082396815787338
-0.001807988564174719
-0.002476529242202849
0.0018188377034853232
-0.009263826403571478
-0.001614015397250732
-0.002589429050138788
-0.003196176333099421
-0.009387660301255497
-0.001774264307856162
-0.002700275170646049
-0.0030380452181581912
-0.009459792889908537
-0.0017402547784455364
-0.0028251760488978797
0.009869533307926299
-0.00947704822483585
-0.001602380033201333
-0.002946991278254161
-0.008792371605860345
-0.009436472503797528
-0.0017011779568933808
-0.009363047245771222
-0.0037475229090645733
-0.003086061087064204
-0.00167121567990567
-0.009247276611606193
-0.003165788977999149
-0.0032546583188822796
-0.0017569721863073236
-0.008898840935203187
0.007462577653127366
-0.00352102071325943
-0.0018566294716813678
-0.008406365408055913
-0.0018461113778191786
-0.00778670505375272
-0.0017381434084664455
-0.0038571059954776057
-0.005404982541034349
-0.004205002049371896
-0.0017954247822044877
-0.007150961521001691
-0.009271219330434904
-0.004578994639391987
-0.0018198806546200236
-0.004995456787139114
-0.0017940888773067302
-0.005461266089198366
-0.0020971797246742865
-0.005976273675375795
-0.003330777254711378
-0.006540534646721316
-0.002066902414074592
-0.0035683705288366892
-0.0017936600887337461
-0.0034553075785130395
-0.009121909680128807
-0.001874021021144739
-0.0004225148929356607
-0.0023149796065277156
-0.0035013167369949082
-0.003202090921719939
-0.0018264285591635574
0.006001594704044895
-0.009353718860081461
0.010425559662282514
-0.0038261028087141938
-0.002443328651024704
-0.009519366131927416
0.010267083365198718
-0.00968919197225058
-0.0013561679029140275
-0.001632167742586108
0.01000280259187843
-0.004164838912172171
-0.0022363693378366863
-0.0096345907049337
-0.0009573028373085512
-0.0018587237628208122
-0.001564220488934908
-0.00954893656381444
0.005060883995449117
-0.009628006579160929
0.004757969419151657
-0.00968596704450146
-0.0027085662599444955
-0.0027366690176811124
-0.00020700169348353522
-0.0045371778663716895
0.006223792867907839
-0.004959280192378125
0.00099807974022119
-0.0018904914305464735
-0.0034179646293200864
-0.009418224399350701
-0.0016825039310063394
-0.0037280679613224824
0.00925803228082648
-0.005435476294851312
0.003498488798376578
-0.0059666652781402265
0.008393568325845476
-0.00655419697598743
-0.0021311604960028764
-0.0019211803871029155
0.0083813816393692
-0.009047269778718194
0.0022353373589041044
-0.007195295675798091
0.009387781184818715
-0.004605753599199851
-0.0012838542576440158
-0.0019523225112944784
0.0073438444806086306
-0.008524118085653311
-0.0020974783756919487
-0.007867263253089549
0.010047172890594858
-0.001984494987888201
-0.002065406241632256
-0.005374323954232008
0.0038907449889132545
-0.00603999498136107
-0.0020349333275818788
-0.0020167553561579025
-0.003312788405137412
-0.006610343681827922
-0.0013142773580279642
-0.007095850942559683
-0.003068521544011189
-0.00205339090115521
-0.0020038736389000216
-0.007617388014857384
-0.0018588371489522571
-0.0021629884335546087
-0.0016656319813789246
-0.00819612580508696
-0.007644160274535122
-0.008702552967383136
-0.0019727787642861696
-0.002249867054417115
-0.0006012227110158268
-0.009071780220363411
-0.0015469267705835094
-0.002337397169676666
-0.001910828476636584
-0.00934781862662733
-0.001941238921630332
-0.0024371586859917942
-0.0027854440164740515
-0.00954411454260462
-0.0019056780222019565
-0.0025369618524863687
0.002731350642004729
-0.00967742554320552
-0.001684408100854132
-0.0026493957028796977
-0.0035360266932376113
-0.009757398092744196
-0.0018664434080534968
-0.002759997930319667
-0.0031970120303221037
-0.009790543972257641
-0.0018267576373683784
-0.0028848320374486426
0.00965414636551461
-0.00977323628586285
-0.0016951994629306737
-0.003006757913662825
-0.008523061496823707
-0.009702378928584221
-0.0017847717849620766
-0.009604193513187101
0.008524742476063241
-0.003146428816099162
-0.0017512418413328428
-0.009463697486767038
-0.003327209872566487
-0.0033156789725784677
-0.0018209134737037988
-0.009089869422947554
0.007567322974717999
-0.003583753680758926
-0.0018679880102465034
-0.008575054910032825
-0.0019529460363024364
-0.00793393904963006
-0.0018297511130235067
-0.003922138550933886
-0.0040431867754185495
-0.004273361084246153
-0.00182376828574456
-0.0072790576043042406
-0.00922372277793779
-0.004652097398431012
-0.0018053708194657808
-0.0050750634859549545
-0.0019157435727773938
-0.005549247929313753
-0.0022014496367859684