# vtk DataFile Version 1.0
GRUMMP topologically 2D mesh
ASCII

DATASET UNSTRUCTURED_GRID
POINTS 4142 float
  0.9902132100051211  -0.0013897599745845   0.0000000000000000
  0.9878682672001325  -0.0017209544766007   0.0000000000000000
  0.9922830260938109  -0.0010965337451688   0.0000000000000000
  0.9852627687065505  -0.0020876945602550   0.0000000000000000
  0.9824126515147726  -0.0024873693035198   0.0000000000000000
  0.9941016532545700  -0.0008382294190312   0.0000000000000000
  0.9793229395886266  -0.0029189889321549   0.0000000000000000
  0.9759912936709813  -0.0033826574903297   0.0000000000000000
  0.9957253756688895  -0.0006072067599891   0.0000000000000000
  0.9724158418644283  -0.0038783672872607   0.0000000000000000
  0.9972114818934485  -0.0003956828894990   0.0000000000000000
  0.9685983419668763  -0.0044053177853816   0.0000000000000000
  0.9986172604849257  -0.0001958749290171   0.0000000000000000
  0.9645418982154840  -0.0049624143705746   0.0000000000000000
  0.9602493276520160  -0.0055486932126648   0.0000000000000000
  1.0000000000000000   0.0000000000000000   0.0000000000000000
  0.9557225436143375  -0.0061636003738353   0.0000000000000000
  0.9986172604763917   0.0001958749302285   0.0000000000000000
  0.0136778115501445  -0.0198442283865115   0.0000000000000000
  0.9509632892996972  -0.0068066585239019   0.0000000000000000
  0.0111799405480040  -0.0180409152078963   0.0000000000000000
  0.9972114818757430   0.0003956828920181   0.0000000000000000
  0.0164236219435115  -0.0216216850259729   0.0000000000000000
  0.9459737546847580  -0.0074771440326796   0.0000000000000000
  0.0194159763686392  -0.0233724637256901   0.0000000000000000
  0.0089312659290954  -0.0162123970812813   0.0000000000000000
  0.9957253756403164   0.0006072067640564   0.0000000000000000
  0.9353156997544615  -0.0088958032333210   0.0000000000000000
  0.0226532123065557  -0.0250954152174871   0.0000000000000000
  0.0261336316774566  -0.0267893559859237   0.0000000000000000
  0.0068429846519911  -0.0142695304151425   0.0000000000000000
  0.9237713702124288  -0.0104115615140689   0.0000000000000000
  0.0298554003449755  -0.0284531869488138   0.0000000000000000
  0.9941016532123735   0.0008382294250309   0.0000000000000000
  0.0050308200222286  -0.0123013782195995   0.0000000000000000
  0.0012596550434314  -0.0062543845982477   0.0000000000000000
  0.9113626015789812  -0.0120184565864932   0.0000000000000000
  0.0338165365583016  -0.0300859006297539   0.0000000000000000
  0.0005600587198625  -0.0041872521188657   0.0000000000000000
  0.0034956879705714  -0.0103096477045821   0.0000000000000000
  0.0380150486067802  -0.0316864834866382   0.0000000000000000
  0.0001400674572995  -0.0020989425108620   0.0000000000000000
  0.0424489169588349  -0.0332538061244847   0.0000000000000000
  0.8981160449036193  -0.0137076729882106   0.0000000000000000
  0.9922830260341767   0.0010965337536290   0.0000000000000000
  0.0022384105171692  -0.0082946477552229   0.0000000000000000
  0.0000000000000000  -0.0000000005380880   0.0000000000000000
  0.0471161050109934  -0.0347866680569130   0.0000000000000000
  0.8692172420003259  -0.0173025512123363   0.0000000000000000
  0.8840586048664243  -0.0154712341935952   0.0000000000000000
  0.8536242589802903  -0.0191927756559575   0.0000000000000000
  0.0520144653095357  -0.0362838744017245   0.0000000000000000
  0.9902132099234322   0.0013897599861408   0.0000000000000000
  0.0001400673054027   0.0020989413744649   0.0000000000000000
  0.0005600583994229   0.0041872509286527   0.0000000000000000
  0.0089312642537700   0.0162123956290166   0.0000000000000000
  0.0068429832427153   0.0142695290019493   0.0000000000000000
  0.0022384098100130   0.0082946464730838   0.0000000000000000
  0.0034956870455263   0.0103096463775504   0.0000000000000000
  0.0050308188630767   0.0123013768482443   0.0000000000000000
  0.0111799386902237   0.0180409137864515   0.0000000000000000
  0.8373107726191357  -0.0211334926288444   0.0000000000000000
  0.0624935355792051  -0.0391666954139108   0.0000000000000000
  0.9878682670932252   0.0017209544916756   0.0000000000000000
  0.0136778095139640   0.0198442269960848   0.0000000000000000
  0.8203090273240524  -0.0231167391866414   0.0000000000000000
  0.0738633143603066  -0.0418930499584099   0.0000000000000000
  0.8026551811301268  -0.0251343400368426   0.0000000000000000
  0.9852627685719384   0.0020876945791685   0.0000000000000000
  0.0861021386417074  -0.0444536409739349   0.0000000000000000
  0.7843840873894279  -0.0271778197795966   0.0000000000000000
  0.9824126513500548   0.0024873693265746   0.0000000000000000
  0.0991843265815398  -0.0468392532814141   0.0000000000000000
  0.0164236197329729   0.0216216836667636   0.0000000000000000
  0.7461418339277840  -0.0313078737465108   0.0000000000000000
  0.9793229393907722   0.0029189889597428   0.0000000000000000
  0.1130825286139299  -0.0490420520078216   0.0000000000000000
  0.7058944105034720  -0.0354399888107516   0.0000000000000000
  0.1277704618123611  -0.0510562827506626   0.0000000000000000
  0.1762568929815641  -0.0559042078350805   0.0000000000000000
  0.0194159739879911   0.0233724623981675   0.0000000000000000
  0.6639684116827792  -0.0395008026994765   0.0000000000000000
  0.1937838883744062  -0.0571083155282771   0.0000000000000000
  0.9759912934368556   0.0033826575228533   0.0000000000000000
  0.2119350336566717  -0.0581032139582273   0.0000000000000000
  0.1432165586985055  -0.0528747491799113   0.0000000000000000
  0.1593891568184451  -0.0544918670991958   0.0000000000000000
  0.0226532097601106   0.0250954139222151   0.0000000000000000
  0.6207078411914361  -0.0434191082996254   0.0000000000000000
  0.5764634620046084  -0.0471137377839725   0.0000000000000000
  0.9724158415910057   0.0038783673250912   0.0000000000000000
  0.2306739249637577  -0.0588890260835713   0.0000000000000000
  0.0261336289695199   0.0267893547234291   0.0000000000000000
  0.5315950381341085  -0.0505057454921963   0.0000000000000000
  0.4864703588817339  -0.0535094604401647   0.0000000000000000
  0.4414549182767121  -0.0560390634426787   0.0000000000000000
  0.9685983416513994   0.0044053178288238   0.0000000000000000
  0.2697570606452168  -0.0598365819607799   0.0000000000000000
  0.3969170552729402  -0.0580119076690758   0.0000000000000000
  0.0298553974799863   0.0284531857194991   0.0000000000000000
  0.9645418978552561   0.0049624144199126   0.0000000000000000
  0.3107174127482247  -0.0599745523566999   0.0000000000000000
  0.3532197168655907  -0.0593474025151865   0.0000000000000000
  0.9602493272443249   0.0055486932681955   0.0000000000000000
  0.0338165335406938   0.0300858994339835   0.0000000000000000
  0.0380150454409591   0.0316864823247920   0.0000000000000000
  0.9557225431564565   0.0061636004358678   0.0000000000000000
  0.0424489136491938   0.0332538049970267   0.0000000000000000
  0.0471161015618897   0.0347866669642923   0.0000000000000000
  0.9509632887889385   0.0068066585927330   0.0000000000000000
  0.9459737541185675   0.0074771441085412   0.0000000000000000
  0.0520144617255517   0.0362838733443521   0.0000000000000000
  0.9353156990700551   0.0088958033238094   0.0000000000000000
  0.0624935317401540   0.0391666944281135   0.0000000000000000
  0.0738633102849253   0.0418930490455120   0.0000000000000000
  0.9237713694002159   0.0104115616199952   0.0000000000000000
  0.0861021343485112   0.0444536401350998   0.0000000000000000
  0.9113626006299211   0.0120184567085017   0.0000000000000000
  0.0991843220904188   0.0468392525175462   0.0000000000000000
  0.8981160438094651   0.0137076731266115   0.0000000000000000
  0.1130825239435962   0.0490420513187447   0.0000000000000000
  0.8840586036192291   0.0154712343488011   0.0000000000000000
  0.1277704569818227   0.0510562821360933   0.0000000000000000
  0.8692172405930260   0.0173025513845012   0.0000000000000000
  0.1432165537277111   0.0528747486397878   0.0000000000000000
  0.8536242574066383   0.0191927758449732   0.0000000000000000
  0.1593891517258480   0.0544918666322352   0.0000000000000000
  0.8373107708732270   0.0211334928345504   0.0000000000000000
  0.1762568877862003   0.0559042074398506   0.0000000000000000
  0.8203090254010921   0.0231167394087162   0.0000000000000000
  0.1937838830953411   0.0571083152030304   0.0000000000000000
  0.2119350283118140   0.0581032137003017   0.0000000000000000
  0.8026551790260408   0.0251343402747870   0.0000000000000000
  0.2306739195716207   0.0588890258904683   0.0000000000000000
  0.7843840851007032   0.0271778200327233   0.0000000000000000
  0.2697570552113356   0.0598365818878674   0.0000000000000000
  0.7461418312636445   0.0313078740273454   0.0000000000000000
  0.3107174073396524   0.0599745523895525   0.0000000000000000
  0.3532197115457904   0.0593474026374948   0.0000000000000000
  0.7058944074605978   0.0354399891145804   0.0000000000000000
  0.6639684082655058   0.0395008030201497   0.0000000000000000
  0.3969170500997217   0.0580119078642495   0.0000000000000000
  0.6207078374111498   0.0434191086291270   0.0000000000000000
  0.5764634578798972   0.0471137381129498   0.0000000000000000
  0.5315950336908907   0.0505057458089039   0.0000000000000000
  0.4864703541532008   0.0535094607315534   0.0000000000000000
  0.4414549133024901   0.0560390636939180   0.0000000000000000
  0.9901595609719056  -0.0023783411927147   0.0000000000000000
  0.0326649145266362  -0.0334200843455863   0.0000000000000000
  0.9878329678703356  -0.0027145673674890   0.0000000000000000
  0.0733998606732272  -0.0440344159407381   0.0000000000000000
  0.9922372924577029  -0.0020726951087579   0.0000000000000000
  0.8846838814295012  -0.0208009306521702   0.0000000000000000
  0.9852539181750185  -0.0030832573491977   0.0000000000000000
  0.8205556230767344  -0.0253024477924150   0.0000000000000000
  0.9824277530968584  -0.0034836508822686   0.0000000000000000
 -0.0022154120548041  -0.0049277430541563   0.0000000000000000
[...]
POINT_DATA 4142
SCALARS continuity float
LOOKUP_TABLE default
0.0029209955739684986
0.002904002798545099
0.0028895586491667047
0.002934831752070869
0.0029396586068564613
0.00347914730942541
0.002950937670570201
0.0029629146818134187
0.0035193220950263935
0.002989996556409396
0.0024355280396500074
0.0029889716869506045
0.043293125204696165
0.00301285381379675
0.003009180449314123
0.012934285096541723
0.0030130749184145425
0.03376998421512036
0.00025549309021933453
0.003045642031577695
-0.0006758862413327625
0.0025507765628863636
0.0008364124701370668
0.0030327800515352514
0.0012427969799872424
-0.0009425429326176059
0.0018580002839853876
0.003016598454627522
0.0015489776077410263
0.001744371551605846
-0.0026415132852333407
0.0030306568523506437
0.0018167423893086635
0.0023973558251985183
-0.0038157899890678463
-0.008765259351076868
0.003054859827940861
0.0017779883813633084
-0.010258902582210254
-0.005349711789639608
0.0016755743372556166
-0.011090388702481826
0.0015567631265119917
0.0030922766545368597
0.002284597177585269
-0.007049584884288745
-0.01103063973887065
0.00264946647798175
0.0031502871310198377
0.003124828369402476
0.0031675143007668
-0.0002621147530269129
0.002433111463837724
-0.009872066390202668
-0.014102340184079024
0.0001941770962138108
-0.0011178686500641348
-0.0015469193088360265
-0.006973442514452042
-0.0028194965853623258
0.00032893773965452275
0.003137138530320181
0.002047041925309934
0.0025908708725842374
0.0010221842650650554
0.003148737012930299
0.00023302651090415348
0.0029804176025368355
0.002709253297849538
0.0001871396373612476
0.0031057795027372645
0.0028291839113433917
0.00010408900554530789
0.0013904597273157089
0.0028415084877145246
0.002895156254633236
-4.550545081110556e-05
0.002839362608335745
-0.0002311762725651237
-0.000744617475691365
0.001644661597691657
0.0026690607534751143
-0.0006546010819464151
0.002947240669629483
0.0002922275460514681
-0.0004261447563430108
-0.0006020313538960004
0.001827352949397835
0.002377672226611452
0.002044444881418612
0.0029844091724112076
-0.0008121434217363221
0.0019050520705186822
0.001756640530763518
0.001564639350949936
0.001473071486779477
0.003028113878787413
0.0009268415826589528
0.0013757132592701143
0.0018813579331900237
0.0030448927125070547
0.00041339276054844025
0.001115508312564635
0.00308068577989012
0.0017789446003719255
0.0016201206919347658
0.0030794212189119074
0.0014577361908484348
0.0024979002739662407
0.0030704837624592612
0.0031266032664163564
-0.0004906399429424751
0.0031050876605253305
0.0017446839117341258
-8.695320485891896e-05
0.003114360373298895
-0.0001428942103897773
0.0031415944852495577
-0.0002469540406327065
0.0031988264668532758
-0.0004286451715202142
0.003231619503831693
-0.0006496307575895267
0.003290182100496476
-0.0008766979812848516
0.003295321448028038
-0.0010854644431684702
0.0033306371371250006
-0.0012602739841461692
0.003291998400926284
-0.0012016947094697506
-0.0002862700511004257
0.0032062232152627232
-0.0014798915024393786
0.003184778622946385
0.00022713903791837792
0.0030364402382689905
-0.00025325697295891606
0.0005708512267218064
0.002999558578271386
0.0028355661881232703
0.0009906973037699487
0.0025361021081641696
0.002172119385095558
0.001809333341198315
0.001501877340837014
0.0012588330918640194
0.002977143692921217
-0.007524077833719245
0.0029091839774940064
-0.0010491579742517476
0.0028491369624748355
0.002912566873172132
0.002941177499859428
0.003126179508787099
0.0029438479307420983
-0.01011578040702826
0.00385782414649147
-0.005810933572165487
0.0029570438473484895
-0.004299302439869472
0.002970817290393341
0.0026218084210996905
0.002077364958582574
-0.008646110595411175
0.0029986471485062825
0.0004049585619297962
0.008540715028082433
0.002933404703679588
0.0029972509902015418
0.003114523405147138
-0.000741343504658646
-0.007013158449599316
0.0030202898844376644
-0.006741714087876232
0.003017852208716258
0.002340035642179458
0.016367061755571025
0.01494513027348278
0.009246307626809155
0.010894076809301005
0.010536176173471006
0.010952923410778395
0.009830761566952725
0.003021798584149639
-0.009324958056622812
-0.0010202076879793438
-0.010407516939848534
0.0004960531380341065
-0.011461803335386857
0.0030548175086157936
-0.00982441561759312
-0.0008339112659303879
-0.009142075264822346
0.00698245372478555
-0.006532431267280717
0.0014239226205720054
-0.008091003143122938
0.00303781018843965
-0.003010867768247957
0.0020656595092109005
-0.007377730399649116
-0.002087586705404001
0.003011093832384446
0.001263925286633395
-0.011337294005119042
0.0030240080492703195
-0.007647341651237363
0.0025159482018597703
-0.011406390274354326
0.0027867233243808647
0.0023954743290512935
-0.004018528620380827
0.002479313279084875
0.003036313363915733
-0.004522221627054522
0.002879815564713921
-0.0014840773674055618
0.0027503614567174393
-0.009123686344583846
-0.005878616982841583
0.0031440937454802103
-0.011044144642968415
-0.0064976140290557115
0.003060875176169714
0.003102852071562366
0.0028408351777521033
-0.010308063919146146
-0.012018562620194292
0.00312791550257085
-0.007826863672516763
-0.0035300171389603136
0.0026982530215026923
6.39118840945837e-05
-0.012319421425947198
-0.005065293445560869
0.0024704032491250777
-0.011600741554543915
0.003098513513780468
0.0023544521355961284
0.002339614605584004
-0.010864920590422726
-0.009606895698242758
0.00306286503836847
-0.012067683687892685
0.0022810671381097276
0.003128596918266509
-0.005509658733812834
0.003157268641808663
0.003072420713469098
0.003130074208567061
0.0030394331320275315
0.003174460905190148
-0.001126177493754594
0.0012549273579458362
0.0028879516357389143
0.0024851139450593183
-0.01178072630880632
-0.011899902925922475
0.0030775304825564503
-0.012185623478719827
-0.0013235847975313002
-0.001318453776872059
-0.0025482072201908424
-0.0030326955978882304
-0.010289952236772615
-0.0074703257642513175
-0.006084287001329444
-0.009204081599379453
-0.011676076714455126
-0.005513945820176575
-0.01070729368146621
-0.00015575778938064534
-0.0016510607081825959
0.0031450656919830605
0.002505831174035394
0.0026434604132888548
0.0030360290448953314
0.002615137763008775
-0.010103928242649352
0.0009756557822046243
-0.01133586913543626
0.0031568718514285075
-0.010027676526561023
0.0008725580302614075
-0.00965406560385991
0.0029928901183915112
-0.00775111539012971
0.0027240718242684606
0.0022967638465999102
0.0007345080862161782
-0.009536083384675256
0.003110341816874224
-0.0021224426951023806
0.002841950341865801
0.002229583873357496
0.0005750378431659134
0.0030137598737971553
0.0017253591041354933
-0.007693208066241215
0.002852343561521254
-0.00903299137795205
0.0029075039141602116
-0.010573252124599754
0.00036067335558593065
-0.0027406349045218477
0.002850649607233491
-0.007579780756914993
0.00011666497863463377
-0.003505858557303236
-0.0005232100698328398
0.0026926340166403846
0.002258305915339998
0.002999908199716535
0.002682483614292288
-0.007585547567482765
-0.00047009675376233784
0.0008458572508411279
0.002959805842405313
-0.005921563941975208
0.00042120146274838584
-0.00811742944460086
-0.0001277080760619282
-0.009413381246734086
-0.00034622915892908233
-0.004386786403471058
0.002624304322460836
-0.003560876165219933
0.0023936608566713707
0.003013789218873317
0.0020628996853775798
-0.008095758301472437
0.0029962544578238308
-0.005321743432072277
-0.000616496054816726
-0.007482734446205481
0.00281611176622932
0.0034167584285942207
0.001779512707701346
-0.00808842488255446
0.0015933802937210515
-0.007415366807992954
0.0015101285055459787
0.002679043411990124
0.0030414661692624457
0.0030306064013083684
0.0010265486941304198
0.003046002493378237
0.0014233695307877038
-0.006319990574006726
0.002854063301158532
-0.010260550074081826
0.003057086565772942
-0.010332144094853092
0.0004918485193799543
-0.0038090884974501067
0.001177083826084139
0.0029978040507123234
0.0030933980053897683
0.0022557820307111246
0.002775609979470289
0.0029940241899345655
0.0025978018660828043
0.0026209739005564063
0.003091015247022442
0.0029986561879962862
0.0023418291832149377
0.00285801157555479
0.002953628349243674
-0.0020096458582060327
0.0030830870594708076
-0.008347921903490785
0.0031352211468734857
0.002974713086089963
0.0010447476299449748
0.0026956544447756894
0.003115588342823108
0.0037738820693953923
0.002355207517803248
0.0030558535778411992
0.0005803108323304583
0.002978385176892826
0.0031235338123290148
-0.0070392716075995945
0.00043682911348999796
0.0027137668452639797
0.0031509380877241863
-0.004626514143204746
0.0002600695423596213
0.002951618116270575
0.0032084076487950055
-0.0016432765495376885
1.3787991828183977e-05
0.002939057115823058
0.003241090919341734
0.0028876097860075782
-0.00026462482359635006
0.003157109826801986
0.003299886444776276
-0.0054474109746053805
-0.0005437555652502051
0.0029298753925486344
0.0033057894979980564
0.002700879798008343
-0.0007970830653378315
0.0029317627717325794
0.003341652026849586
-0.012103054572009338
-0.0010080907585051934
0.0028636998028939925
0.0033033072780785594
-0.0038845502680144085
-0.0009888277188253411
0.002902973453521169
-0.00013569654728625699
0.002267854000814517
0.003224440709659767
0.0029293190842416845
-0.0012551470800602716
0.003002899690717261
0.0031911566128786303
0.006026578889622596
0.00034494820433195596
-0.00492170386341204
0.0030526938091839312
0.005519334843772821
-0.00015827752494586267
0.002799885575454291
0.0006451374110133564
0.005986621917218972
0.0030150896279744687
-0.009740832258169687
0.002853222051545762
0.0064408567765358166
0.001049733036831994
-0.003252453192448523
0.0025578050947125475
0.007998513893004789
0.0021967330479986395
0.002386355734766732
0.0018399504052688024
-0.00829092617608132
0.0015394566458645685
-0.008626529029836552
0.0013054049576599336
0.006765676936120604
0.0029602200041307218
0.0026620051515932413
0.0027229918507827196
0.002976964206771892
-0.0008419493620002357
0.002944397404957866
0.0030780849393422837
-0.009650794475522834
0.0028313051993970086
-0.0012799703381866396
-0.0007016736283197073
-0.008334652714030147
-0.00498347247435242
-0.010868915115569715
0.0028158249240917777
0.0024078516471126394
0.0028876698285904417
-0.009671313320716452
-0.0006729075656559261
-0.008019321488744142
0.0028120807134659693
0.0024567513955814435
-0.0007284418831070326
0.0029550439644726208
-0.0010091518038523944
-0.005920288886161674
-0.004163442177915478
-0.008294895348082698
0.002639069682976282
-0.007363215594507933
-0.0008766444876804491
-0.008449288506507677
0.002937117764123542
-0.00562771153866522
0.00010418725258435889
-0.008765010001995309
-0.0008260080283330301
-0.006905970016304115
-0.0009276856039476474
0.002943579128192725
-0.003385123826428004
0.002084467103238663
0.0023445940873761716
0.0017791893729213102
0.0020065802987692437
-0.004587980157933421
0.002972189002443832
-0.00829025228350008
-0.0008983469726515466
-0.00850243555256934
-0.00270675543330212
-0.008930496904137478
0.001714131691107641
0.002850852154024454
0.0015153490679286246
0.0029602204443853848
0.0014141333605113718
-0.004624427093091398
0.0030161996971594224
-0.008896946474215522
0.0008095334983522951
0.0022598322421612444
0.0013031269148422876
0.0032995162110390887
-0.0021571048277222583
-0.005236122779479016
0.0030310504885844767
-0.008631528590861904
0.00030351354438029095
-0.0039323435955707035
0.0010253873189317883
0.002976484266337294
0.0030676094243232916
-0.006265284642055484
-0.001731004592074149
-0.00876973870400431
-0.0014403756592410281
-0.0029930025956431926
0.003066042601278523
-0.00020791210856588283
-0.0012730808805644896
-0.00522272270313686
-0.00013014970124975087
0.002942024255527093
0.0030586968452533054
-0.0054244109303789095
0.003111505744455523
0.0029401805066096268
-0.0017097603891405623
-0.004968716738381931
0.0030914970887231637
0.0029466602618837545
0.00010344218494127619
0.0022603220817562462
-0.0013478253921249009
0.000174781587770263
0.003101145616350752
0.00290857192235812
-0.001140357087689065
0.0029231118854793716
0.0031267232522857622
-0.007275037705274677
-0.0010131853622424988
0.004256796815522625
0.003183244807057967
-0.008972078155880966
-0.0010124326081062504
0.00292967417009984
0.003214439219538542
0.0015449052997581869
-0.0011004314915297204
0.0024795476017493057
0.0032719804102091673
0.002569532671407875
-0.0012318404373829182
0.002903189681411347
0.0032770546338669417
0.002637054952893398
-0.0013672357640943191
0.0028941822024523118
0.0033119843751588563
-0.005526821504141385
-0.0014829725892981994
0.0031467572353397226
0.003272751435135355
0.0022492505087482366
-0.0013837474504290142
0.0028880221267637268
-0.00043951152865960374
0.002915919131397513
0.003191943480630676
0.002896945991271722
-0.0015269242215218103
-0.005038771017069071
0.003160196716823439
0.002845686147703138
0.00013453402217576915
-0.009408416678173385
0.0030174135634616363
0.002872957994239211
-0.00034475973126076444
0.00010349018973334718
0.0004944752398835403
0.0029085411654121633
0.0029782925005841215
0.002742422481927683
0.002811756060509817
0.00584807855038386
0.0009306621842667394
-0.003353739952757022
0.0025108188976439043
0.00571189362689018
0.0021434954002069887
0.002638317965704967
0.0017768468449045113
0.00586102959691806
0.00146331913930088
-0.008418577265787564
0.0012116607367260524
0.005816255910871824
0.002839681356099452
0.002732880070209424
-0.0016194120244558716
0.002845457881109997
-0.0052139046792408624
-0.002798018473039066
-0.005229303739444907
0.002722132070634753
-0.009043138560745788
-0.0025024496725392117
-0.004420658793747491
-0.002070203563910159
-0.008236638602840025
-0.008752205207537474
-0.004934383124803611
0.0025399540401041683
0.0028287762099251444
-0.0017717381778556546
0.001688243182456901
0.0028891348338196073
0.0017126593583726073
-0.0006417317717495892
-0.0020536145215107582
-0.0023156586953761854
-0.00510594405867192
-0.0021838292390255237
-0.0036379827747851858
-0.008682442313378322
-0.007393996436600205
0.002232214600485883
-0.002422312868962265
0.0018777330719926628
-0.006541336083728972
0.0029204609472734213
0.0015044664162649738
-0.001538252412751133
0.0023897455071832142
-0.008455883111354721
-0.003566354949063443
0.0015632177933683038
-0.005422474185728082
0.0013360215563149006
-0.0029687560572924615
0.0011964967488651203
0.002869303530821357
0.0029633475788480267
-0.0039626011757503184
0.00029138060238092915
-0.005868026973886623
0.0010321511626717318
0.000369097032000051
-0.008091115017524058
-0.0012965546759043892
0.002975987159965456
-0.003107870393695638
-0.00012576419586639312
0.00283418691301734
0.0006832121614528595
-0.004289255808113379
0.003013082952184694
0.002833178276865972
-0.007641650403651342
-0.001988999323326716
-0.007171133271511229
0.002843196320585869
0.003010421968600628
0.0015276518563118514
-0.006718375755433942
0.0016076773251393272
-0.005301856120818913
0.0026512201129040756
0.0030042517955742778
0.0028187868218770527
0.0030580576668738056
0.0022796657264122335
-0.006339393228092506
-0.0025289828758811887
0.003034550528273064
0.003146826839764126
-0.0041362226600620946
-0.011780953415828735
-0.004932194242331539
0.002832212959083353
0.0030430609561378228
0.000357360145767041
-0.004182475651449572
0.002792570790321341
0.003068401748506098
0.0024812911347949656
-0.0035572817011754222
0.002807975197185613
0.0031233409784024503
0.0022410594644202875
-0.0031256181765393263
0.0028029671576199704
0.003152300988322568
-0.0020940712764649
-0.002858722599611368
0.0028652187238595037
0.0032084443977239037
0.0014699876542683496
-0.0027013759046715775
0.0028025090658436533
0.0032113820316268128
0.0026493565409082807
-0.002601338508246618
0.0028167113962537793
0.0032452358745756666
-0.003980262961402791
-0.0025200526290620564
0.002792709336282772
0.003204081808948261
-0.0129431664775436
-0.0022551998200480076
0.00279161884258069
-0.0011625331096922153
-0.0015388929750035025
0.00312212710228128
0.002803652456997084
-0.0021467470872539303
0.0024680731080094923
0.003087925146572229
0.0042911641216591785
-0.0003697992663213645
-0.0023872978745227078
0.002937862380258745
0.004898016298194763
-0.0007655921727027866
0.0025260085941480946
0.00015825631870444197
0.0049406091632574435
0.0028924770200179873
-0.0033815308924417965
0.002717571524237844
0.004974073341792337
0.0006657024717014315
-0.012356930175193912
0.0024038343326243613
0.0039467185869224595
0.002020157901530433
0.0021741335764130414
0.0016321870345154322
0.002949655967198232
0.00129132454630368
0.0025625570273781055
0.0010005501949398588
0.0028486239381425825
-0.0010824573168514982
0.002730782284976983
-0.006025397339076246
-0.007201770795386993
0.0022598762658472167
-0.0063299740190340455
0.0026233747862723015
0.0025638617738025582
0.0002066815492134042
0.002763401881239364
-0.0028919329944263323
-0.006267729170181641
-0.004015553601781877
0.0025397997495889735
-0.0048459860044552825
-0.005518170264047148
-0.003657299557327371
-0.004011030544511345
-0.0038441096091848263
-0.007243005931170155
-0.0038328263769516722
0.0023362741342902536
0.0026159300911367607
-0.0034384122831244337
-0.0006828902351915161
0.0027976611097531565
0.002105624428664079
-0.002071141640122966
-0.0009573140540431697
-0.004924274289758411
-0.0024530262477500814
-0.004437444637970263
-0.0004252901600646124
-0.008184574795792866
-0.0031091123553168964
0.00200224868353624
-0.0014604691883632562
0.0016142690282618766
-0.002540535208642694
0.002820721990541593
0.00024430519139876587
-0.0027715804888023324
0.0024833547073228237
-0.009081170358340917
-0.002787002293192729
0.001256128977559445
-0.0022925928119668895
0.000974768051068192
-0.0025416654946506865
0.000761035861265929
0.0026700210275298905
0.002861072676174312
-0.0027971942991230105
-0.000724325784125099
-0.002302601868616762
0.0004956493748797573
-0.0024061935241289274
-0.009851114373897012
0.0018587157030827903
0.0028690259521853088
-0.002122001398374996
-0.0009635137700706137
0.002632860954440163
1.1062116407003733e-05
-0.003589630161221508
0.0029070970779103366
0.002634875343595505
-0.01041956431625832
-0.0006321507921882392
-0.01077460474503533
0.0026505409550595057
0.0029024468871728603
0.00030394268502845104
-0.010941680527929027
0.0025940648096471467
-0.010114719113526143
0.0021907343784469103
0.002895134417294484
0.0026270266483407324
-0.011173196496715663
4.7010174497949644e-05
0.0029223020083592017
0.0031142156197084088
-0.00934270344012033
-0.009525728708539377
-0.009738345021414479
0.002651747547042507
0.0029292260747432607
-0.0003819630141572484
-0.008602390838944844
0.0026854807341115334
0.002952718935594471
0.0023242832137930418
-0.007512121897758356
0.002631993454723182
0.0030038968121445055
0.001550134429367082
-0.006592305293044795
0.0026393492074422136
0.003029843461999522
-0.00040770363557116805
-0.005863069910225845
0.0027313756950564133
0.003082049624718811
0.00017316249544299938
-0.005291931874437352
0.0026528561069670163
0.0030815620115554223
0.002173060005499032
-0.004831198015089798
0.002686254589358066
0.0031117018709105448
-0.0033632882838243497
-0.004432899623887049
0.0026643548451796167
0.003067014257815567
-0.011990835132121099
-0.00389078981926592
0.002661851324243601
-0.002561143094758428
-0.0020284734446682417
0.0029807505103780878
0.0026778245613807315
-0.0033480249523426373
0.0019702939140292994
0.0029403075818712383
0.0043069107217575215
-0.0013630526707421149
-0.002038245998206159
0.002777133816196427
0.0045874003748769985
-0.001588765056343212
0.002357768336264575
-0.00050403126787783
0.0044909066076249515
0.0027168808166405417
-0.0005525062816643892
0.002522710210953356
0.0041225635136503055
0.00013674090286073173
-0.012944457793126772
0.00218316861231722
0.003791865742143415
0.0017665237601247605
0.0019803994204912263
0.0013360694328977693
0.0027508281399318533
0.0009389903618109231
0.0020408957821585983
0.0005737622068035295
0.0026436777743963683
0.00019455635466171487
0.002606452794537324
-0.0016092751208390665
-0.011454774849579302
0.001996729478859108
-0.0024549715708855335
0.0022372062127528508