# vtk DataFile Version 1.0
GRUMMP topologically 2D mesh
ASCII

DATASET UNSTRUCTURED_GRID
POINTS 4142 float
  0.9902132100051211  -0.0013897599745845   0.0000000000000000
  0.9878682672001325  -0.0017209544766007   0.0000000000000000
  0.9922830260938109  -0.0010965337451688   0.0000000000000000
  0.9852627687065505  -0.0020876945602550   0.0000000000000000
  0.9824126515147726  -0.0024873693035198   0.0000000000000000
  0.9941016532545700  -0.0008382294190312   0.0000000000000000
  0.9793229395886266  -0.0029189889321549   0.0000000000000000
  0.9759912936709813  -0.0033826574903297   0.0000000000000000
  0.9957253756688895  -0.0006072067599891   0.0000000000000000
  0.9724158418644283  -0.0038783672872607   0.0000000000000000
  0.9972114818934485  -0.0003956828894990   0.0000000000000000
  0.9685983419668763  -0.0044053177853816   0.0000000000000000
  0.9986172604849257  -0.0001958749290171   0.0000000000000000
  0.9645418982154840  -0.0049624143705746   0.0000000000000000
  0.9602493276520160  -0.0055486932126648   0.0000000000000000
  1.0000000000000000   0.0000000000000000   0.0000000000000000
  0.9557225436143375  -0.0061636003738353   0.0000000000000000
  0.9986172604763917   0.0001958749302285   0.0000000000000000
  0.0136778115501445  -0.0198442283865115   0.0000000000000000
  0.9509632892996972  -0.0068066585239019   0.0000000000000000
  0.0111799405480040  -0.0180409152078963   0.0000000000000000
  0.9972114818757430   0.0003956828920181   0.0000000000000000
  0.0164236219435115  -0.0216216850259729   0.0000000000000000
  0.9459737546847580  -0.0074771440326796   0.0000000000000000
  0.0194159763686392  -0.0233724637256901   0.0000000000000000
  0.0089312659290954  -0.0162123970812813   0.0000000000000000
  0.9957253756403164   0.0006072067640564   0.0000000000000000
  0.9353156997544615  -0.0088958032333210   0.0000000000000000
  0.0226532123065557  -0.0250954152174871   0.0000000000000000
  0.0261336316774566  -0.0267893559859237   0.0000000000000000
  0.0068429846519911  -0.0142695304151425   0.0000000000000000
  0.9237713702124288  -0.0104115615140689   0.0000000000000000
  0.0298554003449755  -0.0284531869488138   0.0000000000000000
  0.9941016532123735   0.0008382294250309   0.0000000000000000
  0.0050308200222286  -0.0123013782195995   0.0000000000000000
  0.0012596550434314  -0.0062543845982477   0.0000000000000000
  0.9113626015789812  -0.0120184565864932   0.0000000000000000
  0.0338165365583016  -0.0300859006297539   0.0000000000000000
  0.0005600587198625  -0.0041872521188657   0.0000000000000000
  0.0034956879705714  -0.0103096477045821   0.0000000000000000
  0.0380150486067802  -0.0316864834866382   0.0000000000000000
  0.0001400674572995  -0.0020989425108620   0.0000000000000000
  0.0424489169588349  -0.0332538061244847   0.0000000000000000
  0.8981160449036193  -0.0137076729882106   0.0000000000000000
  0.9922830260341767   0.0010965337536290   0.0000000000000000
  0.0022384105171692  -0.0082946477552229   0.0000000000000000
  0.0000000000000000  -0.0000000005380880   0.0000000000000000
  0.0471161050109934  -0.0347866680569130   0.0000000000000000
  0.8692172420003259  -0.0173025512123363   0.0000000000000000
  0.8840586048664243  -0.0154712341935952   0.0000000000000000
  0.8536242589802903  -0.0191927756559575   0.0000000000000000
  0.0520144653095357  -0.0362838744017245   0.0000000000000000
  0.9902132099234322   0.0013897599861408   0.0000000000000000
  0.0001400673054027   0.0020989413744649   0.0000000000000000
  0.0005600583994229   0.0041872509286527   0.0000000000000000
  0.0089312642537700   0.0162123956290166   0.0000000000000000
  0.0068429832427153   0.0142695290019493   0.0000000000000000
  0.0022384098100130   0.0082946464730838   0.0000000000000000
  0.0034956870455263   0.0103096463775504   0.0000000000000000
  0.0050308188630767   0.0123013768482443   0.0000000000000000
  0.0111799386902237   0.0180409137864515   0.0000000000000000
  0.8373107726191357  -0.0211334926288444   0.0000000000000000
  0.0624935355792051  -0.0391666954139108   0.0000000000000000
  0.9878682670932252   0.0017209544916756   0.0000000000000000
  0.0136778095139640   0.0198442269960848   0.0000000000000000
  0.8203090273240524  -0.0231167391866414   0.0000000000000000
  0.0738633143603066  -0.0418930499584099   0.0000000000000000
  0.8026551811301268  -0.0251343400368426   0.0000000000000000
  0.9852627685719384   0.0020876945791685   0.0000000000000000
  0.0861021386417074  -0.0444536409739349   0.0000000000000000
  0.7843840873894279  -0.0271778197795966   0.0000000000000000
  0.9824126513500548   0.0024873693265746   0.0000000000000000
  0.0991843265815398  -0.0468392532814141   0.0000000000000000
  0.0164236197329729   0.0216216836667636   0.0000000000000000
  0.7461418339277840  -0.0313078737465108   0.0000000000000000
  0.9793229393907722   0.0029189889597428   0.0000000000000000
  0.1130825286139299  -0.0490420520078216   0.0000000000000000
  0.7058944105034720  -0.0354399888107516   0.0000000000000000
  0.1277704618123611  -0.0510562827506626   0.0000000000000000
  0.1762568929815641  -0.0559042078350805   0.0000000000000000
  0.0194159739879911   0.0233724623981675   0.0000000000000000
  0.6639684116827792  -0.0395008026994765   0.0000000000000000
  0.1937838883744062  -0.0571083155282771   0.0000000000000000
  0.9759912934368556   0.0033826575228533   0.0000000000000000
  0.2119350336566717  -0.0581032139582273   0.0000000000000000
  0.1432165586985055  -0.0528747491799113   0.0000000000000000
  0.1593891568184451  -0.0544918670991958   0.0000000000000000
  0.0226532097601106   0.0250954139222151   0.0000000000000000
  0.6207078411914361  -0.0434191082996254   0.0000000000000000
  0.5764634620046084  -0.0471137377839725   0.0000000000000000
  0.9724158415910057   0.0038783673250912   0.0000000000000000
  0.2306739249637577  -0.0588890260835713   0.0000000000000000
  0.0261336289695199   0.0267893547234291   0.0000000000000000
  0.5315950381341085  -0.0505057454921963   0.0000000000000000
  0.4864703588817339  -0.0535094604401647   0.0000000000000000
  0.4414549182767121  -0.0560390634426787   0.0000000000000000
  0.9685983416513994   0.0044053178288238   0.0000000000000000
  0.2697570606452168  -0.0598365819607799   0.0000000000000000
  0.3969170552729402  -0.0580119076690758   0.0000000000000000
  0.0298553974799863   0.0284531857194991   0.0000000000000000
  0.9645418978552561   0.0049624144199126   0.0000000000000000
  0.3107174127482247  -0.0599745523566999   0.0000000000000000
  0.3532197168655907  -0.0593474025151865   0.0000000000000000
  0.9602493272443249   0.0055486932681955   0.0000000000000000
  0.0338165335406938   0.0300858994339835   0.0000000000000000
  0.0380150454409591   0.0316864823247920   0.0000000000000000
  0.9557225431564565   0.0061636004358678   0.0000000000000000
  0.0424489136491938   0.0332538049970267   0.0000000000000000
  0.0471161015618897   0.0347866669642923   0.0000000000000000
  0.9509632887889385   0.0068066585927330   0.0000000000000000
  0.9459737541185675   0.0074771441085412   0.0000000000000000
  0.0520144617255517   0.0362838733443521   0.0000000000000000
  0.9353156990700551   0.0088958033238094   0.0000000000000000
  0.0624935317401540   0.0391666944281135   0.0000000000000000
  0.0738633102849253   0.0418930490455120   0.0000000000000000
  0.9237713694002159   0.0104115616199952   0.0000000000000000
  0.0861021343485112   0.0444536401350998   0.0000000000000000
  0.9113626006299211   0.0120184567085017   0.0000000000000000
  0.0991843220904188   0.0468392525175462   0.0000000000000000
  0.8981160438094651   0.0137076731266115   0.0000000000000000
  0.1130825239435962   0.0490420513187447   0.0000000000000000
  0.8840586036192291   0.0154712343488011   0.0000000000000000
  0.1277704569818227   0.0510562821360933   0.0000000000000000
  0.8692172405930260   0.0173025513845012   0.0000000000000000
  0.1432165537277111   0.0528747486397878   0.0000000000000000
  0.8536242574066383   0.0191927758449732   0.0000000000000000
  0.1593891517258480   0.0544918666322352   0.0000000000000000
  0.8373107708732270   0.0211334928345504   0.0000000000000000
  0.1762568877862003   0.0559042074398506   0.0000000000000000
  0.8203090254010921   0.0231167394087162   0.0000000000000000
  0.1937838830953411   0.0571083152030304   0.0000000000000000
  0.2119350283118140   0.0581032137003017   0.0000000000000000
  0.8026551790260408   0.0251343402747870   0.0000000000000000
  0.2306739195716207   0.0588890258904683   0.0000000000000000
  0.7843840851007032   0.0271778200327233   0.0000000000000000
  0.2697570552113356   0.0598365818878674   0.0000000000000000
  0.7461418312636445   0.0313078740273454   0.0000000000000000
  0.3107174073396524   0.0599745523895525   0.0000000000000000
  0.3532197115457904   0.0593474026374948   0.0000000000000000
  0.7058944074605978   0.0354399891145804   0.0000000000000000
  0.6639684082655058   0.0395008030201497   0.0000000000000000
  0.3969170500997217   0.0580119078642495   0.0000000000000000
  0.6207078374111498   0.0434191086291270   0.0000000000000000
  0.5764634578798972   0.0471137381129498   0.0000000000000000
  0.5315950336908907   0.0505057458089039   0.0000000000000000
  0.4864703541532008   0.0535094607315534   0.0000000000000000
  0.4414549133024901   0.0560390636939180   0.0000000000000000
  0.9901595609719056  -0.0023783411927147   0.0000000000000000
  0.0326649145266362  -0.0334200843455863   0.0000000000000000
  0.9878329678703356  -0.0027145673674890   0.0000000000000000
  0.0733998606732272  -0.0440344159407381   0.0000000000000000
  0.9922372924577029  -0.0020726951087579   0.0000000000000000
  0.8846838814295012  -0.0208009306521702   0.0000000000000000
  0.9852539181750185  -0.0030832573491977   0.0000000000000000
  0.8205556230767344  -0.0253024477924150   0.0000000000000000
  0.9824277530968584  -0.0034836508822686   0.0000000000000000
 -0.0022154120548041  -0.0049277430541563   0.0000000000000000
[...]
POINT_DATA 4142
SCALARS continuity float
LOOKUP_TABLE default
0.0021947512082676453
0.0021175456381452634
0.0022311874252458844
0.0020645016527661574
0.002007864093733852
0.0027118466102630024
0.0019556386337590157
0.0019122289123551844
0.0025325981358647093
0.001882518950146801
0.0026590077734375086
0.0018437175802790428
0.02514495179340197
0.0018207504212621884
0.0017996201596761107
0.008094719828680992
0.0017861396201645494
0.01123304530532092
-0.007809439738938917
0.0017716496048675217
-0.008083388799345432
0.0026110279560518875
-0.00770291024661782
0.0017879901307604452
-0.00765121385098248
-0.007503017366246657
0.0020488976355358328
0.0017726590719738611
-0.007582807985581355
-0.0075395929113440865
-0.007957202289427048
0.0018230510389831104
-0.007534782795650229
0.0023065607068056618
-0.007647911097970698
-0.00666980955874333
0.0018383427556980443
-0.007563952843584566
-0.006330577601285907
-0.007389815314710571
-0.007594095401241146
-0.00591322614906407
-0.0076362839180967495
0.001882078017160179
0.0020132739133407263
-0.007051673344426236
-0.005520186918746502
-0.006621796255984778
0.001976200627320053
0.001927247283645173
0.002035985570610861
-0.008974535158282042
0.0020013699517238263
-0.0049316970447882205
-0.011556974708487744
-0.007302529101526309
-0.007567462327430689
-0.0020802079935587727
-0.010905492371453992
-0.008051429095422809
-0.00791858455383563
0.002092589670755183
-0.006486288481085539
0.0019589104922413036
-0.007727779079535046
0.0021583954254734026
-0.007905959643725589
0.0021090468214370276
0.0019263271215951858
-0.007639109893951491
0.0023925416921543393
0.0018924464428289696
-0.007365107151382239
-0.007714122289046475
0.0023302545595660774
0.001852246106947215
-0.007104251850705822
0.0024954695251577547
-0.006821946068099424
-0.005604303544509475
-0.007684458836861775
0.002606629395781772
-0.004909546647296401
0.0018163431624016466
-0.003416324436021989
-0.006493746407516313
-0.006088842927185631
-0.007636127413497796
0.002783204434542831
0.0030315652871941395
0.0017824622622131915
-0.00342633505730838
-0.007606538490120009
0.0033298007757056724
0.003619877770863915
0.0037394967713392803
0.0017618201069928927
-0.00045481239301302514
0.00340535589901086
-0.007606817742445036
0.0017447236014158235
0.0005498853181876778
0.002393363570242832
0.0017357363802130191
-0.007628644354508027
-0.007644415312514606
0.0017196977080521938
-0.007669965487924228
-0.006643194752899279
0.0016876025092789474
0.0017068754097888461
-0.008996188743418782
0.001697815468941958
-0.006523369316309219
-0.00794534778684744
0.0017476113398077597
-0.00767570973854121
0.001772478927881726
-0.007397631348385688
0.0018222147010166483
-0.007134730284846232
0.0018460997778521123
-0.006853352947991102
0.0019031520063155355
-0.00652700336912334
0.001951758827183866
-0.0061254128420808445
0.0020055569860125406
-0.005645578008823481
0.00206037666228783
-0.004954942804915913
-0.0034621137649730248
0.0019924129237088328
-0.0034735039209837903
0.002203121961089876
-0.0004890208146129529
0.0022444699459374766
0.0005305642124995709
0.0023722677748035494
0.002374152688205868
0.002483687012445557
0.003361309386294672
0.00263931580793675
0.0028952881098014147
0.0032125190555612406
0.003521565040855929
0.003665837796338675
0.0022079547866804368
-0.0035545119218686376
0.0020992983964766006
-0.00640959961457351
0.0021876611320893694
0.0016986040670358734
0.0020501213644483294
0.0021399643706092306
0.001996146400221427
-0.006861939912774854
0.0029813428197341496
-0.0049838556191338194
0.0019482892724785148
-0.0032313022189936836
0.001909060269660289
0.0019274481091400538
0.001926361116984929
-0.006747163193953322
0.0018821424671214807
-0.004744212603812571
0.006744852322675547
0.0017538315415119594
0.0018462474782987655
0.0020722580338084213
0.002153631298214303
-0.0036153840490570255
0.0018260346494719149
-0.005524426884464745
0.0018073084171970261
0.0015324489590692121
0.012844173895761793
0.012116909026097099
0.006585019589108469
0.007128108208905302
0.0071406652369826636
0.007205789188243545
0.007075113515649448
0.0017959049661854414
-0.007900319300241718
0.005054536590006768
-0.006862167918367392
-0.004844457107278393
-0.010161526155283101
0.001784589530721607
-0.0023980335104965447
-0.005140485677936134
-0.006318362942652751
0.006181618362951783
-0.0038188423045648445
-0.004766743523380994
-0.006572407387312619
0.0017969618064399174
-0.003152946444765645
-0.004825358350991626
-0.005908778883795215
-0.005162769574037173
0.001781095701329828
0.0018735156614471183
-0.008396610342131551
0.0017857713336897325
-0.005181966436690231
-0.00490733352030908
-0.007809892020473909
-0.005045059199475236
0.0018920134286113323
-0.005709401541615613
0.001978331287798908
0.0018355490856536568
-0.004377322620103468
-0.005228738190730939
-0.006299309671373157
0.0025645670626805897
-0.006843392718231761
-0.006151832940492583
0.002014377253940815
-0.007512151151990715
-0.005500534642571591
0.00185047776017281
0.0019032585091984455
-0.005443057069502939
-0.006788626309854167
-0.007688888983562109
0.0019534081023612846
-0.00669888694322923
-0.003645876131435864
-0.005662202770602299
-0.004633415433919767
-0.0075200173259734986
-0.0032267041174558137
-0.005935776562643908
-0.007717109902719214
0.001894462271914527
0.0017278080689217728
0.001996462454211941
-0.007681435672790284
-0.007181695143723675
0.0018816499103419034
-0.007293298683328475
0.001931720257316233
-0.005443564755696321
-0.003993493032182727
0.0019887874054002742
0.001856849356206064
0.001939588998986932
0.0018290956317834131
0.0020488399834678174
-0.0052275856443925114
-0.006980468087584382
0.0016478667572235638
0.0020077017070511414
-0.007821262078321636
-0.007393100608601411
0.0019440885389411461
-0.008818156077246909
-0.004937464164191651
-0.005042776117357167
-0.0028432244057756324
-0.0055214705114925875
-0.007374161253874043
-0.0052736120732192375
-0.004847718556114023
-0.009778832856047087
-0.007883021237059237
-0.00689419794946902
-0.0032207344042118487
-0.005014056493428917
-0.004728086546786789
0.002105999151288569
0.0018970262890043305
-0.005411943395991721
0.0018116282021658555
0.0019426861485193248
-0.003044134194275143
-0.004791829565845742
-0.00783187425628334
0.0021730656918851543
-0.006820093420303095
-0.006917455230705756
-0.0069452084945704215
0.002131378043315329
-0.005269642277390626
0.0019124052890810942
0.002194164505145197
-0.006819020077568909
-0.00703203477556749
0.0023990113349455187
-0.004559801720210802
0.0018811873039341778
0.0012857293518532009
-0.006677998748738984
0.0017953351813089647
-0.004809058993948755
-0.006089737435319753
0.002348992780241051
-0.006502390796031456
0.0018446772342518595
-0.0033817627165707983
-0.006524827673333992
-0.0044493407690000845
0.0025127943924107238
-0.006514265862407623
-0.006332891383555473
-0.0044236572454243875
-0.005302614485219478
0.0015502714310891175
-0.004884670650735647
0.0017443779868313097
0.002626605848791321
-0.005555146435341293
-0.004656392917973
0.0012201606497288086
0.0018127539653489473
-0.005582875491063988
-0.00322446028474311
-0.005857488881212085
-0.006079775170264814
-0.008513369981397997
-0.005737663442863657
-0.004500796999247669
-0.00498512388865123
-0.0027745338858979475
0.0028066228521063993
0.0017556506989061336
0.003059217541492533
-0.007298176950474646
0.0017822930853469805
-0.004661321569309657
-0.003195938562437681
-0.005299077897220156
-0.005132123376103877
0.0033754609185550222
0.0033637173662172714
-0.0057855663408551495
0.003661292489676541
-0.005553762978799301
0.0037915466567792068
0.001490879039937957
0.001764470404803993
0.0017422649955994053
-0.000318438735337266
0.002003709683733089
0.003470606811553881
-0.004996675028042335
-0.005316119005002588
-0.00367312330153943
0.0017499270628075086
-0.0063950568620121445
0.0006553817958483364
-0.003476522663080596
0.0024762180398060244
0.001754732183579972
0.0017426233426446854
0.0011267248216478695
-0.005519903332424291
0.001766946081066249
-0.005726209028052896
0.0018378630159083433
0.0017286900122375774
0.0017868806905016756
-0.005977565697211088
0.001597296406884962
-0.005472820841815098
-0.003595515403066638
0.001700271480608735
-0.005271560084685191
0.0017154555180724518
0.0018082735706209387
-0.007006747507451003
0.0016190121176616328
0.001711164425153843
0.003569274961092094
-0.0054516886264572295
0.0020721129326289897
-0.006957961983626996
0.0018463450282916489
0.0017602123484781284
-0.005392559024689076
-0.006855727054489896
0.0017138605995238453
0.0017848364514108904
-0.005200041552369428
-0.006709418685942088
0.0018753145318070486
0.0018347754816858124
0.00018756808461310777
-0.006553575546697343
0.0019180360729987838
0.0018586750106377712
0.002029568348660551
-0.006362005236112654
0.002493770186398475
0.001916121176881159
-0.005649983111991674
-0.0061109574837711214
0.001969725438699839
0.0019646390300644516
0.001797780177253319
-0.005772201249195491
0.0020279422274837792
0.002019111620159293
-0.003589667626409244
-0.005341813144458041
0.0021366966184612176
0.0020746678655659137
-0.005331354444876034
-0.004699805460970688
0.0020779301048030638
-0.003268649102475367
0.0018523026323478973
0.002014884820620101
0.0021610549094186866
-0.0032406398766515426
0.002300171641166765
0.002209450202803923
0.004578287413470019
-0.0003510366871717575
-0.005065248522228894
0.002263301852899778
0.002647026401663054
0.0006371017878730773
0.001759166645324015
0.002456307111582767
0.002674005423741458
0.0023921197458885712
-0.004010696382232716
0.0025040468406414547
0.002897700051066622
0.0034278393462388005
-0.005374893704264405
0.0026629373043539515
0.005084393233368553
0.0029237542104452265
0.0015247202606396284
0.003246807184286563
-0.0037803060586131605
0.00356407370443121
-0.004841952429791837
0.0037188614996118137
0.004812324242631053
0.0020965182859861956
0.001436464379681263
0.001893454861523463
0.0017337317985126593
-0.006398516764396076
0.0018191600747751613
0.0023664573029259666
-0.006864025270557408
0.001856792559328529
-0.0024770149713422562
-0.006317871905089898
-0.006582255793812385
-0.0047116022220401385
-0.003594660889223287
0.0023137877073454295
0.002110383641977118
0.0018148358254670564
-0.004027662695517192
-0.0062132670827792095
-0.003593181083592415
0.002479806682924001
0.0017329342734234746
-0.006069728077311125
0.0017150135283252248
-0.005162634108355161
-0.0043755803936773975
-0.004560440438010867
-0.006401083181109951
0.002593884957178918
-0.0051448293395145415
-0.004544772212512234
-0.0037426360650008117
0.0017792311607513797
-0.004088791965011922
-0.003116739924366025
-0.004008432636579791
-0.005864223525760262
-0.005372189624055706
-0.005563280087146376
0.0016616123127484795
-0.00450242621678221
0.0009386430644695763
0.002774325620675724
0.0016700975988296113
0.0030280039417384464
-0.0057140335932571945
0.0017456005817528897
-0.006004152671545615
-0.0031433979459073204
-0.004351272662665231
-0.004539621912537878
-0.004375409694578747
0.0033333355207671536
0.0021807691090709827
0.0036331996925437664
0.0016723064196648783
0.0037649868346149844
-0.005784124534270755
0.0017253095951931124
-0.0047729378639762236
-0.00029184733175866755
0.0012505562894132626
0.003445583414065871
0.0030041854044106195
-0.004653737365827322
-0.004449490221604514
0.0017084192326137476
-0.005761308939703767
0.0006415501032005146
-0.004487562487238724
0.002453124299880713
0.0016570853669093334
0.0017002285193982117
-0.00648246617333792
-0.004815634751985036
-0.005247659392239846
-0.005012645489210347
-0.0025625739938292887
0.0016858549713190628
0.0007352780209225597
-0.005285345479915874
-0.006072990143399261
-0.00467955995282813
0.0016671292991174735
0.0016570285590664748
-0.004142395178967338
0.0016739669298436125
0.0016780302066566855
-0.006338575059599533
-0.005718441055258846
0.0016690164469195835
0.001696803582266951
-0.00479515295465112
0.0011856624085058256
-0.006458774164178026
0.0003002955617316924
0.0017193539499469033
0.0018805533503759018
-0.00644268032944067
0.0017162170243588846
0.0017451219663135646
-0.004642984003855736
-0.006355715535967924
0.0032496635647253813
0.001796184837374552
-0.002220574678366317
-0.006247672327699759
0.0017535151272034168
0.0018213913003135066
0.0007140482034689255
-0.006103573223306959
0.001806282129500707
0.0018799012600051737
0.0016801212766077392
-0.005898807364131779
0.0017800780104472557
0.0019290987526353616
0.0013816950551326305
-0.005600908769367929
0.001820846349976172
0.001984406536369063
-0.005566853840334488
-0.005204078710292533
0.0023608732698903708
0.0020406530165538576
0.0013249729499730742
-0.004589668742585924
0.0018713215604856679
-0.0031623076165410765
0.0019510170240907218
0.001979573788363274
0.001930343132002752
-0.0031894304495232936
-0.004250387770688284
0.0021765934277425117
0.002067426352106008
-0.0003256118494662323
-0.0036647981245703193
0.002227735382206282
0.001983675500385134
0.0006226678222102009
-0.004352380261455743
0.0024325496055020474
0.0020694458387092145
0.002358078740779144
0.0019098368779836743
0.002471019681781151
0.0036582019389186596
0.003402019166410799
-0.004597233753592676
0.002630553120190445
0.00338123105521867
0.0028919666507635187
0.0016403796165547504
0.003216171935628987
0.0035967589974936092
0.0035351847328634186
-0.0046481984632291
0.0036919787300532044
0.0043365778739112345
0.0015751117395483292
0.002245340564465014
-0.005015271625686549
0.0017165643079076179
-0.005735484481713922
-0.005384617818177704
-0.003911839656901062
0.002413204458915267
-0.0043763062558128596
-0.0053544046089074974
-0.0033244713976847986
-0.004743397107471017
-0.004742486295285636
-0.004438298620223946
-0.004179390321943305
0.0025301669584500875
0.0015186817272180083
-0.004201275817535987
0.0005476040455194022
0.0016823911288208915
0.001450269781385998
-0.002831067371472583
-0.004819433613255148
-0.005257321970068617
-0.005678328071830781
-0.005056648130426876
-0.00511879448152337
-0.004088249840870708
-0.005088506036001843
0.0027139313893951205
-0.004758106962779395
0.0029718463870138504
-0.00532930268048259
0.0016497692115541786
0.0008542172789463392
-0.002955718000050204
0.0021590318375866754
-0.0038356416545428916
-0.0036146850318382545
0.0032842836763115365
-0.005705863472080649
0.0035923814454264015
-0.0037474000026108093
0.0037333455290691478
0.001511613187828661
0.0016310760635236347
-0.004849020558342991
-0.00019834892997329617
-0.005551749765130376
0.003423124012584155
-0.0017051877475117744
-0.0036910359847689513
-0.000594178443014009
0.001615324621090655
-0.004812187961069689
0.0006604918776521964
0.0015192318184226942
0.0024430425955936095
-0.0034033973467472787
0.001608511512796481
0.0015279434566227393
-0.003650036141541081
-0.004959401466751284
-0.003701447368165169
0.001544889074957981
0.001595790708398331
0.000779408914072401
-0.0038897504125052647
0.00014461625676290055
-0.0032880618615547205
0.0016837353138719246
0.0015686656165994088
0.0015615720194936725
0.0015888082676691776
0.0016144310723841477
-0.004904471120002863
-0.0050778261283587695
0.0015843507576990719
0.0023810144218979166
-0.0035426572226793336
-0.0021046677671760113
-0.00526159647483723
0.0015972713275792102
0.001636746701750349
0.00025202288445368815
-0.005386727143407426
0.001738458284377521
0.00166483559390428
0.0014774764013390945
-0.005423418032213863
0.0016199021201413085
0.0017178457352006492
0.001067221224479096
-0.005428708001433176
0.00165845263354846
0.001745571167537255
-0.005045366679609625
-0.0053963273507927935
0.0020554734544572482
0.0018058751941961665
0.0009390896722654651
-0.00529934062937659
0.0017083347080296362
0.0018569846885474074
0.0017567094918213488
-0.005100183284208129
0.0017670874368405866
0.001913737911151083
-0.0035223525254701508
-0.004789612550874737
0.001903643932125583
0.0019714488050169786
-0.0027568435519262535
-0.004250233383747017
0.001818716174550865
-0.0028801314872185413
4.6616511714674244e-05
0.0019113222957470122
0.0018874122614767354
-0.0030052689484191893
0.001717936631391727
0.0021088217587470473
0.002476706530324003
-0.00023533171585007082
-0.0038463669799784356
0.0021584057609293256
0.0026701026989324065
0.000639076013749177
0.0014331185317191897
0.00242107337301443
0.002633084159486694
0.0022902748928224606
-0.005415436680072431
0.002406383480481194
0.002956336215738341
0.003379410435679609
-0.0024057621010977483
0.0025693117444927503
0.0027349876280921555
0.002835314078362486
0.001329826718313804
0.003166252810008239
0.0014415089399611547
0.00349389914433473
0.0019911548558738516
0.003660264033817605
0.0015285513094640056
-0.005244524214709389
0.0016015058167960403
-0.004855160628964196
-0.003879292208675748
0.0012708514030568164
-0.005396203621206036
0.0013564012827129205
0.002124430407409306
-0.004798017689419996
0.0015559110474568634
-0.004743484220944156
-0.003988733114208995
-0.003134667062458895
0.002296143783593766
-0.004982951110061836
-0.004088338710086883
-0.0028375651572357602
-0.003918849693641805
-0.005049173026136715
-0.005129211638760177
-0.003393681938949235
0.0024196324028496383
0.001296287755256597
-0.0035097902359321432
-0.0037339888040192407
0.001521385138632132
0.001451005922855751
-0.002255581583564024
-0.004057176904893312
-0.00413809413934534
-0.004788493690953338
-0.004087753955517491
-0.005020122447916239
-0.004804930677435661
-0.005102102705226263
0.0026118426946102635
-0.003982195634216539
0.002882125090987955
-0.005027323140965319
0.0014894171929724868
0.0004264376717800578
-0.0025509793631352997
0.0018314815543665902
-0.004455198140275621
-0.0031201538729239697
0.00321095217472604
-0.00491541006758336
0.003539638811390178
-0.0032316892167766884
0.003703684433244448
0.0012882811385316437
0.0014725879081723173
-0.0038388636060889838
2.2902095956913597e-05
-0.005001566260734437
0.003416327572385028
-0.002407415397308152
-0.004096869980679896
0.00121989790384189
0.0014587285979638734
-0.003946093538524811
0.0007446448434275072
0.0012927919055760843
0.002465989223146351
-0.002935106425258524
0.0014541981365051224
0.0012979587750833255
-0.003754325095687886
-0.0041854745808918
-0.003457145994926414
0.0013120497666606616
0.0014430559827466073
0.00033120229587380886
-0.003286138101783528
0.0013124623638397692
-0.002461481733110987
0.0013954409683306305
0.0014190485652762514
0.0013255628319334704
-0.003656703769455016
-0.004784664849903338
0.001437982424170166
0.0019951508848825928
-0.0022943084307138033
-0.00352726908407604
-0.003734832739530759
0.0013614371091778294
0.001493552636346144
-0.003719590351996385
-0.0038462170426587622
0.0016112765898786334
0.0015249605071815536
0.001230243751317829
-0.0039395932300537685
0.001383309247918997
0.0015812112102738093
0.0006487407699361363
-0.0040446761489133665
0.0014257225379575645
0.0016119718815371601
-0.0043120941844662945
-0.004142448350546282
0.0017678855799289196
0.0016748847259331276
0.0005347307815568438
-0.0041912227055160645
0.001484736047118342
0.0017287432604534592
0.0014731539015146852
-0.004141193468606373
0.0015524203759348083
0.0017877952777796634
-0.003042101897353054
-0.003973954935325101
0.0016863920422073339
0.001847409419374629
-0.0035431115253357747
-0.0035668483874861704
0.0016054188386281172
-0.0023126004116088322
-0.002618235879035336
0.0017885554786794696
0.0016626377879814852
-0.0026073225154707998
0.0014403186372467216
0.0019869645120612184
0.0026762009908888116
-2.0145341411091893e-05
-0.0033121536482466018
0.00203542076795633
0.0027987722047019695
0.0007191722380756719
0.0011740932373087193
0.0024417206934398547
0.002700766540920195
0.0021720317157263185
-0.00528857686656553
0.0022942905598908867
0.0025530314229228962
0.0033713483227658498
-0.002520528189740646
0.0024662360768567056
0.0025252455163670413
0.002744463617309067
0.0010046250363096143
0.0030921176267323792
0.001214188257811819
0.0034406630852711188
0.0017206997676896408
0.0036293558391652108
0.0013064341839285
-0.004779969304255775
0.0013886462313936023
-0.004959499925978597
-0.002209969656177307
0.0009612222876269058
-0.005128391079649515
0.0010382784522240287