# vtk DataFile Version 1.0
GRUMMP topologically 2D mesh
ASCII

DATASET UNSTRUCTURED_GRID
POINTS 4142 float
  0.9902132100051211  -0.0013897599745845   0.0000000000000000
  0.9878682672001325  -0.0017209544766007   0.0000000000000000
  0.9922830260938109  -0.0010965337451688   0.0000000000000000
  0.9852627687065505  -0.0020876945602550   0.0000000000000000
  0.9824126515147726  -0.0024873693035198   0.0000000000000000
  0.9941016532545700  -0.0008382294190312   0.0000000000000000
  0.9793229395886266  -0.0029189889321549   0.0000000000000000
  0.9759912936709813  -0.0033826574903297   0.0000000000000000
  0.9957253756688895  -0.0006072067599891   0.0000000000000000
  0.9724158418644283  -0.0038783672872607   0.0000000000000000
  0.9972114818934485  -0.0003956828894990   0.0000000000000000
  0.9685983419668763  -0.0044053177853816   0.0000000000000000
  0.9986172604849257  -0.0001958749290171   0.0000000000000000
  0.9645418982154840  -0.0049624143705746   0.0000000000000000
  0.9602493276520160  -0.0055486932126648   0.0000000000000000
  1.0000000000000000   0.0000000000000000   0.0000000000000000
  0.9557225436143375  -0.0061636003738353   0.0000000000000000
  0.9986172604763917   0.0001958749302285   0.0000000000000000
  0.0136778115501445  -0.0198442283865115   0.0000000000000000
  0.9509632892996972  -0.0068066585239019   0.0000000000000000
  0.0111799405480040  -0.0180409152078963   0.0000000000000000
  0.9972114818757430   0.0003956828920181   0.0000000000000000
  0.0164236219435115  -0.0216216850259729   0.0000000000000000
  0.9459737546847580  -0.0074771440326796   0.0000000000000000
  0.0194159763686392  -0.0233724637256901   0.0000000000000000
  0.0089312659290954  -0.0162123970812813   0.0000000000000000
  0.9957253756403164   0.0006072067640564   0.0000000000000000
  0.9353156997544615  -0.0088958032333210   0.0000000000000000
  0.0226532123065557  -0.0250954152174871   0.0000000000000000
  0.0261336316774566  -0.0267893559859237   0.0000000000000000
  0.0068429846519911  -0.0142695304151425   0.0000000000000000
  0.9237713702124288  -0.0104115615140689   0.0000000000000000
  0.0298554003449755  -0.0284531869488138   0.0000000000000000
  0.9941016532123735   0.0008382294250309   0.0000000000000000
  0.0050308200222286  -0.0123013782195995   0.0000000000000000
  0.0012596550434314  -0.0062543845982477   0.0000000000000000
  0.9113626015789812  -0.0120184565864932   0.0000000000000000
  0.0338165365583016  -0.0300859006297539   0.0000000000000000
  0.0005600587198625  -0.0041872521188657   0.0000000000000000
  0.0034956879705714  -0.0103096477045821   0.0000000000000000
  0.0380150486067802  -0.0316864834866382   0.0000000000000000
  0.0001400674572995  -0.0020989425108620   0.0000000000000000
  0.0424489169588349  -0.0332538061244847   0.0000000000000000
  0.8981160449036193  -0.0137076729882106   0.0000000000000000
  0.9922830260341767   0.0010965337536290   0.0000000000000000
  0.0022384105171692  -0.0082946477552229   0.0000000000000000
  0.0000000000000000  -0.0000000005380880   0.0000000000000000
  0.0471161050109934  -0.0347866680569130   0.0000000000000000
  0.8692172420003259  -0.0173025512123363   0.0000000000000000
  0.8840586048664243  -0.0154712341935952   0.0000000000000000
  0.8536242589802903  -0.0191927756559575   0.0000000000000000
  0.0520144653095357  -0.0362838744017245   0.0000000000000000
  0.9902132099234322   0.0013897599861408   0.0000000000000000
  0.0001400673054027   0.0020989413744649   0.0000000000000000
  0.0005600583994229   0.0041872509286527   0.0000000000000000
  0.0089312642537700   0.0162123956290166   0.0000000000000000
  0.0068429832427153   0.0142695290019493   0.0000000000000000
  0.0022384098100130   0.0082946464730838   0.0000000000000000
  0.0034956870455263   0.0103096463775504   0.0000000000000000
  0.0050308188630767   0.0123013768482443   0.0000000000000000
  0.0111799386902237   0.0180409137864515   0.0000000000000000
  0.8373107726191357  -0.0211334926288444   0.0000000000000000
  0.0624935355792051  -0.0391666954139108   0.0000000000000000
  0.9878682670932252   0.0017209544916756   0.0000000000000000
  0.0136778095139640   0.0198442269960848   0.0000000000000000
  0.8203090273240524  -0.0231167391866414   0.0000000000000000
  0.0738633143603066  -0.0418930499584099   0.0000000000000000
  0.8026551811301268  -0.0251343400368426   0.0000000000000000
  0.9852627685719384   0.0020876945791685   0.0000000000000000
  0.0861021386417074  -0.0444536409739349   0.0000000000000000
  0.7843840873894279  -0.0271778197795966   0.0000000000000000
  0.9824126513500548   0.0024873693265746   0.0000000000000000
  0.0991843265815398  -0.0468392532814141   0.0000000000000000
  0.0164236197329729   0.0216216836667636   0.0000000000000000
  0.7461418339277840  -0.0313078737465108   0.0000000000000000
  0.9793229393907722   0.0029189889597428   0.0000000000000000
  0.1130825286139299  -0.0490420520078216   0.0000000000000000
  0.7058944105034720  -0.0354399888107516   0.0000000000000000
  0.1277704618123611  -0.0510562827506626   0.0000000000000000
  0.1762568929815641  -0.0559042078350805   0.0000000000000000
  0.0194159739879911   0.0233724623981675   0.0000000000000000
  0.6639684116827792  -0.0395008026994765   0.0000000000000000
  0.1937838883744062  -0.0571083155282771   0.0000000000000000
  0.9759912934368556   0.0033826575228533   0.0000000000000000
  0.2119350336566717  -0.0581032139582273   0.0000000000000000
  0.1432165586985055  -0.0528747491799113   0.0000000000000000
  0.1593891568184451  -0.0544918670991958   0.0000000000000000
  0.0226532097601106   0.0250954139222151   0.0000000000000000
  0.6207078411914361  -0.0434191082996254   0.0000000000000000
  0.5764634620046084  -0.0471137377839725   0.0000000000000000
  0.9724158415910057   0.0038783673250912   0.0000000000000000
  0.2306739249637577  -0.0588890260835713   0.0000000000000000
  0.0261336289695199   0.0267893547234291   0.0000000000000000
  0.5315950381341085  -0.0505057454921963   0.0000000000000000
  0.4864703588817339  -0.0535094604401647   0.0000000000000000
  0.4414549182767121  -0.0560390634426787   0.0000000000000000
  0.9685983416513994   0.0044053178288238   0.0000000000000000
  0.2697570606452168  -0.0598365819607799   0.0000000000000000
  0.3969170552729402  -0.0580119076690758   0.0000000000000000
  0.0298553974799863   0.0284531857194991   0.0000000000000000
  0.9645418978552561   0.0049624144199126   0.0000000000000000
  0.3107174127482247  -0.0599745523566999   0.0000000000000000
  0.3532197168655907  -0.0593474025151865   0.0000000000000000
  0.9602493272443249   0.0055486932681955   0.0000000000000000
  0.0338165335406938   0.0300858994339835   0.0000000000000000
  0.0380150454409591   0.0316864823247920   0.0000000000000000
  0.9557225431564565   0.0061636004358678   0.0000000000000000
  0.0424489136491938   0.0332538049970267   0.0000000000000000
  0.0471161015618897   0.0347866669642923   0.0000000000000000
  0.9509632887889385   0.0068066585927330   0.0000000000000000
  0.9459737541185675   0.0074771441085412   0.0000000000000000
  0.0520144617255517   0.0362838733443521   0.0000000000000000
  0.9353156990700551   0.0088958033238094   0.0000000000000000
  0.0624935317401540   0.0391666944281135   0.0000000000000000
  0.0738633102849253   0.0418930490455120   0.0000000000000000
  0.9237713694002159   0.0104115616199952   0.0000000000000000
  0.0861021343485112   0.0444536401350998   0.0000000000000000
  0.9113626006299211   0.0120184567085017   0.0000000000000000
  0.0991843220904188   0.0468392525175462   0.0000000000000000
  0.8981160438094651   0.0137076731266115   0.0000000000000000
  0.1130825239435962   0.0490420513187447   0.0000000000000000
  0.8840586036192291   0.0154712343488011   0.0000000000000000
  0.1277704569818227   0.0510562821360933   0.0000000000000000
  0.8692172405930260   0.0173025513845012   0.0000000000000000
  0.1432165537277111   0.0528747486397878   0.0000000000000000
  0.8536242574066383   0.0191927758449732   0.0000000000000000
  0.1593891517258480   0.0544918666322352   0.0000000000000000
  0.8373107708732270   0.0211334928345504   0.0000000000000000
  0.1762568877862003   0.0559042074398506   0.0000000000000000
  0.8203090254010921   0.0231167394087162   0.0000000000000000
  0.1937838830953411   0.0571083152030304   0.0000000000000000
  0.2119350283118140   0.0581032137003017   0.0000000000000000
  0.8026551790260408   0.0251343402747870   0.0000000000000000
  0.2306739195716207   0.0588890258904683   0.0000000000000000
  0.7843840851007032   0.0271778200327233   0.0000000000000000
  0.2697570552113356   0.0598365818878674   0.0000000000000000
  0.7461418312636445   0.0313078740273454   0.0000000000000000
  0.3107174073396524   0.0599745523895525   0.0000000000000000
  0.3532197115457904   0.0593474026374948   0.0000000000000000
  0.7058944074605978   0.0354399891145804   0.0000000000000000
  0.6639684082655058   0.0395008030201497   0.0000000000000000
  0.3969170500997217   0.0580119078642495   0.0000000000000000
  0.6207078374111498   0.0434191086291270   0.0000000000000000
  0.5764634578798972   0.0471137381129498   0.0000000000000000
  0.5315950336908907   0.0505057458089039   0.0000000000000000
  0.4864703541532008   0.0535094607315534   0.0000000000000000
  0.4414549133024901   0.0560390636939180   0.0000000000000000
  0.9901595609719056  -0.0023783411927147   0.0000000000000000
  0.0326649145266362  -0.0334200843455863   0.0000000000000000
  0.9878329678703356  -0.0027145673674890   0.0000000000000000
  0.0733998606732272  -0.0440344159407381   0.0000000000000000
  0.9922372924577029  -0.0020726951087579   0.0000000000000000
  0.8846838814295012  -0.0208009306521702   0.0000000000000000
  0.9852539181750185  -0.0030832573491977   0.0000000000000000
  0.8205556230767344  -0.0253024477924150   0.0000000000000000
  0.9824277530968584  -0.0034836508822686   0.0000000000000000
 -0.0022154120548041  -0.0049277430541563   0.0000000000000000
[...]
POINT_DATA 4142
SCALARS continuity float
LOOKUP_TABLE default
0.0015987929388997645
0.0016620054984916872
0.0015393661503027576
0.0017450202465396128
0.001839206996580162
0.0015418680360360071
0.0019294701456983128
0.0020132898949575873
0.00217534792012562
0.002081247448065569
-0.0013139454481226665
0.002153202459709269
-0.009176410373472908
0.002207175181807949
0.0022581759717240366
0.0028204566196586046
0.0023039080597696045
0.028987312447431753
-0.0031430744891350424
0.0023335364454089525
-0.003521226229930256
0.0012742209349421738
-0.002748431441789246
0.002410343051123535
-0.0023579558869446893
-0.00416653114136846
-0.00221009315626562
0.0024462565673119665
-0.0019788721324726366
-0.0016079637253442044
-0.0045106709060318195
0.0024796834293683867
-0.0012483807007544413
-0.0012868898975503644
-0.005010139538303313
-0.005007986507797885
0.0025349204374475595
-0.0009111249459740412
-0.004007230401412273
-0.00534355908718963
-0.0006213490462926409
-0.00263359817387624
-0.0003627140505843484
0.0026090935611738915
-0.0014784309275826164
-0.005403876023788922
-0.0002698696945986127
-0.00013738522621137397
0.002730009575497492
0.002682887571274781
0.002804140152025315
-5.820400688225002e-05
-0.0014889496672755322
0.004069539326830123
-0.003064284663666652
0.004435114569256534
0.004690710166011035
0.010987979786224887
0.0018494117362705196
0.0042877857210019375
0.0037109586664031222
0.002814152608706875
0.0005102425810639524
-0.00153617085465493
0.0033039637933125632
0.0028745582025941404
0.0012121850150603637
0.002791414706621113
-0.0016020322900486502
0.0018051735304108962
0.0027345550490514327
-0.00167306821291451
0.002183992696484349
0.002848498274717356
0.0025110316215856653
-0.0017523193518489389
0.0023930638924231275
0.0022778364219192657
0.0024794188631595375
0.002017851791436524
0.002403296964979342
0.0017947802271445613
0.0016000036797462738
-0.0018231313706068032
0.0010570600632325696
0.0024447978624549324
0.0022924186792513458
0.001985677910110549
0.0009618400314472911
-0.00025370527754083283
-0.001894101584027579
-0.00014990515644247316
0.001578468898078192
-0.001810346171021643
-0.003538062430626856
-0.005078766171823283
-0.0019462833243004789
-0.0019408353991073582
-0.0059143075425656605
0.0011926331943210625
-0.0019956098795701066
-0.004162200543060984
-0.005613635136869146
-0.002034253644015115
0.0008227532799492091
0.0005108688278961109
-0.0020876609633014944
0.0002349623242260991
0.00010505475089159572
-0.0021366001256198737
-0.002184364975274034
-0.0002647797740684313
-0.0022431365243411466
-0.0006032242349513051
-0.00147362661657855
-0.0022591747496074487
-0.0020826292104807126
-0.002310849645280553
-0.0024718507550322622
-0.0023842508350186576
-0.0026890148897006903
-0.0024449013276873423
-0.0027851131079047377
-0.0025224401668194276
-0.0027578261795714724
-0.0025430548714683557
-0.0026110617530992614
-0.0026059948534393608
-0.002340818320078156
-0.0026061370585992697
-0.0019140125300521767
-0.0012802620409087112
-0.002597416557243742
-0.00015760843373446124
-0.0025785702274242254
0.0018009014386520072
-0.0022077477553111876
0.003958314596164681
0.0054815104332014255
-0.0020433204017912122
-0.0015569327149835182
0.005855082790282484
-0.000751201756898163
0.0004518886108436262
0.0019712058030199563
0.003636185976522443
0.005100198952375388
0.0016609961262405637
-0.0022673509611201063
0.001698962116927277
0.0006719749395285776
0.0015508801924376178
0.0025097032989834125
0.0017830756363439928
0.0028647315411751756
0.0018712389334194404
-0.00010510783413192353
0.0017350572308643412
0.003448777154111624
0.0019574991476500386
-9.691734700736437e-05
0.0020370836360056738
-0.001515816351166422
0.001953426700358742
0.0007212203239039128
0.0021035903687505143
-0.00018387379759966438
0.0012320251711213175
0.0025593996126601105
0.0021725553236540034
0.0028023314264893637
0.007586044840238708
-0.002268143722277505
0.002225141679138909
0.003166993001173653
0.002274056159987154
-0.0010910116688623505
0.0019954641293554926
0.004425597399669822
0.0031468206528876305
0.002494949594362193
0.0017703464784497509
0.0014492921031214131
0.0005071236065562514
0.0023189636230268947
0.0009102833066254783
-0.009923277823333342
-0.0003481483282794142
-0.004951261436343391
-0.0010768220408593672
0.002350674308220615
-0.0018898455588417437
-0.0055229260256470175
0.0021105433830458597
0.0010490753993023059
-0.00217522652701697
-0.004302880966556543
0.0021710415186387724
0.0024186816798531623
-9.918993429929393e-05
-0.003643966418546566
0.002788962346455181
-0.0061340305832350145
0.002530242845148953
-0.0025152476096445796
-0.001064919808822699
0.0024604993540256717
-0.0001930697688196746
-0.00301275199542895
0.000899052695905166
-0.0024158019418169365
-0.001347218285769078
-0.006398673012535393
-0.0014427922972740162
0.002493315798156415
0.00030160345598324477
-0.0018626304208602309
-0.000709369122645116
-0.001288494609362033
0.00043273131863049303
-0.006469199934738514
0.0027921928067969615
-0.004670597191514719
0.0006838404954534218
0.002548194384540286
0.002668961620311881
-0.0013560505032438922
-0.00022888521896573122
-0.003460428191232941
0.0027162723578739827
-0.00618906063392451
-9.314799742815201e-06
-0.0009320551308792779
-0.0010796193202354221
-0.002025922717697439
-0.0021148067288911158
-0.0005765853730233651
-0.00016679921657832174
0.002623008185633961
-0.0012852981183105164
-0.001493452436669909
-0.0013295295896615868
-0.005583227996082864
0.0026566104702269236
-0.00025528684527914027
-0.0015652037276260597
-0.0003311923090529668
-0.00013614496992721828
0.0027453821317717617
0.0025928259432017207
0.002698677321650374
0.0026077393295596794
0.002820252591800613
-0.0013273705508890156
1.649026024777337e-05
0.002429310790295991
-0.0015247413571792647
-0.0007499452202607378
0.0025507951113864506
0.0027335876055862257
0.0007566061318876571
-0.0016733333599707214
0.00655571972838934
-5.3432841013135495e-05
0.006678560556361548
-0.0016184526556310343
0.007133333728504973
-0.001810859104972569
0.003265143351263282
-0.0008875156344854281
0.005661177933207513
-0.0012584586911314158
0.005970600419393037
-0.002048605956994868
0.0028304581301752283
-0.0013339609941519196
0.0005259528577767212
0.0025169336746081574
-0.0015676575184168887
0.0011890528509881978
0.005362500266929501
-0.001101652823743034
0.0028924509806177476
0.00020648083866222383
0.0013132324336118648
-0.0019921631980023245
0.002820575005838028
-0.00024188180741413907
-0.001635082403711188
-0.001173397376177561
0.0019467956517632919
-0.0015929063641133472
0.0027388951116531874
-0.002457258869325287
-0.0017027489666731114
-0.0009514681566545088
0.002348711142980707
0.0024598541351324326
0.004650712540944615
-0.00111517658517494
0.002536435494677591
-0.0023988068767173947
-0.00177812646162111
-0.0006314114049007569
0.0025671202189749393
-0.0028404084788158997
0.0023013400514310923
-0.0013266774513952895
0.002655761090317169
-0.003164396559792559
0.0021774335822506005
0.002419599425332324
0.003930981735513769
0.0024245112795769274
0.0018200721083302459
0.00021557221556162744
0.0017468261408146524
-0.0028841228810145727
-0.0018454756297805468
0.0011435867794400648
0.0011705119754673342
-0.0028710484572183853
0.0026183425787414524
-0.002470733071705548
0.0024602376096340916
-0.0033932588615561113
0.003247647596871319
-8.00184956901748e-05
0.0009902481468282408
0.0023816132211453584
-0.00022086315869378442
-0.0017762979988975094
-0.001913664610350092
-0.003487000059496858
1.8502553515230978e-05
1.9695447176777724e-05
0.0026069764766412868
0.0006953621589729508
-0.0017725906693397205
-0.0008149681881759365
-0.003493463006066553
-0.003152182017860478
-0.0050261553663713005
0.002367596019409737
-0.001963248044123701
0.002310177145473367
-0.0018376166644917184
0.0027450474843969965
-0.005851510564164921
-0.0034142230433486524
0.00200280113171649
8.871612353627749e-05
-0.0020114246065986614
-0.009139477127265637
-0.004072012006249063
-0.0013967342630278592
-0.005538345378359459
0.0022777182216616723
-0.0020485773533575344
0.002097476134887412
0.0014561281254022842
0.0022313572390531915
0.0009969892167910831
-0.0014260401837178787
-0.0021014115419692027
0.00218034408584922
0.0006009264990405936
0.0023469009375083265
0.00039602828792268904
0.004053728244398618
-0.0021524417926884806
-0.00033111767573572656
-0.002190909691504294
0.0021267274830206193
-0.0001335269624186179
0.0025001968976004338
-0.002255928143244769
-2.378007787353441e-05
-0.0005264006086949058
0.002808979821579331
-0.0014816299740940608
0.0020552919948384424
-0.0022702506135458354
0.00030271187428689033
-0.002145701057449801
0.002392879920127776
-0.0023221620619296624
-0.0004989911430036619
-0.00257013237034858
0.0019888827840251404
-0.0023956265533122004
0.0013667241098574093
-0.00280746846606543
0.00190773824199509
-0.0024571993131741804
0.002736489342016239
-0.0029130018983271693
0.0013507731279375002
-0.0025353015624141302
0.0016492555467077356
-0.0028899602830055444
0.0018210273183399258
-0.002556510438893394
-0.001491348026073357
-0.0027433071023375555
0.0017282776107870564
-0.0026205049120860313
0.00013032926522106336
-0.0024700196078323113
0.0016072422892346172
-0.002621174655295476
0.0002906311084729839
-0.002034845646599513
0.0016524646848316677
-0.0013744895550793145
-0.000983148315682237
-0.0026239584433144607
0.0015681631246695523
-0.000298815633399796
0.0026602973705483804
-0.002581332925114864
0.00014556299540079433
0.001712789322731667
0.005510956485821151
-0.0022299426074950607
4.705139160698497e-05
0.0038808117743448496
-0.0015661477603210697
0.005415958548933682
0.0011103765629587102
-0.0020638813216652986
0.00082812032663118
-0.001579507378707487
0.0020386339880513285
0.005800398796427097
0.0008906562811925651
-0.000776477549179037
0.0030128959735319324
0.0004231654226827822
-0.0011025176966490372
0.0019377252191926542
-0.0012404520737425311
0.0035971944507913775
0.00021071069863545913
0.00505355838176168
-0.0003731215521820793
0.0027907658496674403
0.002283578607164431
-0.0015743026222137218
0.0024515818478856705
0.0013876535822078164
0.0026384671391462564
0.002713863239732486
0.00014193475676641622
-0.0016470831374211022
0.00017450160626582381
0.0018765396449534422
0.0009395263755498085
0.0035053051835744887
-0.0021485473593379698
0.0025087252063742704
-0.0010965953358916735
-0.0017257468518016203
0.0023199533145228613
0.0021742159942308285
-0.0021673531468350215
0.0022747020193264965
-0.0012189772645404982
0.002330540314401901
0.0023919541282443994
0.002005177519679262
0.00496815902519805
0.0033922866762387616
0.0010352729028405392
0.001792430709110152
5.956091941726958e-05
0.0016147635853450385
-0.0019216289968347381
-0.0017954498090490833
-0.0002502207322463281
0.0010782300376492669
-0.0015208812080533928
0.0023516965052163023
-0.0014493292297124796
0.0022440516295507877
0.0023535603698245787
0.003147521303041526
-0.0007959734078717672
0.0009612118181756046
-0.0015270219918158377
-0.0002523032330192756
-0.0027437263513227558
-0.0018653785281619788
0.0009000708749609803
-5.2597807753824384e-05
0.003194757287772202
0.002805038386351697
-0.0010047132696613895
-0.0018069925401862188
0.0025694993061304854
-0.0035329240988344287
0.002307747645047722
-0.005070952477450692
-0.0023477539903836654
-0.0019172604690083912
-0.0004212916503020997
-0.0018932807416596393
0.0022361178735727824
-0.005902508685421304
-0.00026692222118027175
0.002400392512133632
-0.00024561776777959186
-0.0019676289436555737
0.0006407898223342105
-0.004130536424105186
0.0006499136902190051
-0.00559556854829762
0.0022333150502326874
-0.002007322021482536
-0.0021432417744983714
0.0019785925068333144
0.00015198269886217868
0.0015855641046451886
-6.108464120749221e-05
-0.002061484068512599
-0.002315180671861702
0.0012165596987147355
-0.0021804092201047768
0.0010362273915126014
0.0021990172752803074
-0.0021129283477289286
-0.0001183387044715876
-0.0021543205126381567
0.0021502040110235408
0.0005021110499810779
-0.0030805810599134446
-0.002220789071624062
0.0020978749198889315
0.0001113903310896067
0.002184262774631007
-0.0009034932887770768
0.0008666995134059042
-0.0022383034838775913
0.002651467623779862
-0.0016364441121492152
0.0020443381406638505
-0.002292471035125572
0.0038734724997613315
-0.002137407435828317
0.0009081263485209602
-0.0023670388898063078
-0.002369327683828225
-0.0024445426234950248
0.0019721416690110954
-0.0024288861926154825
0.0018786192359838997
-0.0026121124813510243
0.0012943474772525625
-0.002507409501132472
-0.001323486400932153
-0.0026432747414163104
0.0019064148294436487
-0.002529552470811105
0.0021983434654575537
-0.0025435972859606465
0.0018274343296662344
-0.0025938246463978755
-0.0032518922828555174
-0.0023100259581549116
0.0012954621098644852
-0.0025946257345664837
0.002318040695488388
-0.0019131759780703457
0.0017426801934111822
-0.0012880446348055364
0.002716100980821404
-0.002593973453107708
0.001649627526101998
-0.00023455457329891956
4.8579981408933026e-05
-0.00255645048579703
0.0014299802155936096
0.001763935422756007
-0.0018273830440583964
-0.002203072959776092
0.0015731234704250666
0.003933864517454976
0.002889627814080436
0.005468613770593374
0.0014757133675288002
-0.0020382051091221466
0.002645448493778757
-0.0015527266037313218
0.0007222121529059596
0.005847803877200904
0.0010866214390983758
-0.0007482194238359705
0.0010153011369219852
0.0004524701580908035
-0.0013829213487871895
0.001970824909077882
0.0012969609147963496
0.003634044974999296
0.004152446005664875
0.005096119046895951
0.0017468499649291541
0.002283775653190381
0.0024538449251998284
0.006137652679044953
-0.0016443652810238434
0.0021672931201699107
0.0013121935953704273
0.00010068631014902935
0.002218570388808924
0.001550003980348166
0.0015923874657715205
-0.00024015038678521606
0.0015919948240765084
0.0021931196648096924
0.0007654762616525698
-0.0009980371116192327
0.0017348748524527407
0.0022409346910245223
0.0012912428523590813
-0.0006107596156352681
-0.0017132381860329225
-0.0017688721725605551
0.0008304044076005427
-0.0022111501319221163
0.0017304995435006932
0.0026105240245563586
0.00173176465696726
0.005654654687227474
0.0012719945730337268
0.0026892634225313236
0.0009008513092147588
-0.0016932943170312994
-0.0003177728409136922
0.0029911938372804334
-0.0017834015062766955
0.0020160076899185062
-0.00022853008038184897
-0.00047858648962961515
0.001655461136286145
-6.757946930268687e-05
-0.0018799547002958065
0.0029477400565722568
-0.00361317378644657
0.00018588975248503192
-0.0051598274742051245
0.0021138216578586388
-0.0018361014921942913
-0.0012053830600225117
-0.0020207197126475454
0.0030793817455708593
-0.005999975985610381
0.00024708469373942247
0.0018953811259707484
-0.003682337713721227
-0.0018878714019018347
-0.001403499697020842
-0.004239341338732193
0.0020754021312140137
-0.005700038469944306
-0.00019751954111586927
-0.0019283078820605708
0.0020247128038045643
0.001989816008958926
-0.002800474468045814
0.0019855797544205455
0.0019703106928556954
-0.001984800510031251
0.0019666421545303783
0.0018878228871164336
0.002323846484591438
0.001904788311325689
0.002514310385464947
-0.0020396379880586305
0.0019175747867352544
-0.0020830420297839334
-0.000899662117458786
0.0014663866429698062
0.005519417623565558
-0.0021523334394462014
0.0007286721951086772
0.0011957436761509306
-0.0010906162844860913
0.00016496924787758825
0.0018453036706888501
-0.002172451392186895
0.0016312865661949254
-0.0006238805980183665
0.0016405819991738616
-0.002229128878455557
-0.0011963241183624385
-0.0012185442847378524
0.0017831975577850298
-0.002305877797403172
0.0020084716883403053
-0.001636613379920763
0.001708056223876517
-0.0023694574575774756
-0.0034077060786269343
-0.0019165529569655194
0.0011162668707507667
-0.0024498691366999776
0.0020949353575696926
-0.002057132576826499
0.0016288076672514777
-0.002473047636644186
0.002581474157023025
-0.0020597516073547614
0.0015374806321113346
-0.002538713403712021
-0.00013572603085400365
-0.0019209531485329793
0.0013798006163879507
-0.0025406369379258123
-0.0016691643585589734
-0.0016090653384641853
0.0014719805485123559
-0.001054551466109417
0.0013645725496369933
-0.002540847585437157
0.0013546665735785423
-7.17663369464612e-05
0.0025101176647356078
-0.0025047356024044034
-0.0002670201668541211
0.001881665647585607
0.0004412350153230267
-0.0021493750671524835
0.0007038571336277392
0.004032977129526669
-0.0012605445610168143
0.0055650746537235065
0.0014829951667427825
-0.001984411759206084
0.006384474767312154
-0.0014974406872279617
0.002153325746736386
0.005939797370647651
-0.0020334269794504986
-0.0006901240333846421
-0.00119671658958525
0.0005157871426903775
-0.0008001653616381188
0.002039902478545115
-0.0019719408482759184
0.0037106466649592133
0.00243218999755814
0.005180865910471592
0.002193101150349998
0.005739180087211427
-0.0014541000913963222
0.0043035971819800345
-0.0006849483625766429
-0.0009824087416445456
-0.0032306824261420356
0.0021299951639702952
0.0023613621567319817
0.004746669297284677
-0.0015276057123590789
0.0015988722101612338
-0.0001994110326561694
0.0001280567429857248
0.0021226489231840726
0.004499539639688474
0.00020668005729820814
-0.00019796019834192793
0.0007128961334755577
0.004469125598773938
-0.0029834796932488644
-0.0006118620837901052
0.001634318549192154
0.002083307185919508
0.0005775641722882825
0.0011396144566955307
-0.0015926118477283362
-0.0010984434059055955
0.0002628030414341635
-0.0011884652426042133
0.0005032260705826906
0.002171173323600239
0.0006768283228267817
0.005165143314447405
-0.0025324258837923
0.004242010873662043
0.0007928548754811076
-0.0008410686528468848
-0.00043617717130521106
0.003844809625653277
-0.0016607699839988057
0.001749950977281359
-0.0006309217038145023
-0.0006912480938384535
-0.0019334219512076125
9.124633241309713e-05
-0.002011319063036269
0.002760557606760678
-0.003760258629761012
-6.808760459518944e-06
-0.005321054607802318
0.001946730506300106
-0.001712025284949174
-0.0005072412579089731
-0.0022910289869608608
0.0033423581146561406
-0.006172503921056107
-3.3858242441907574e-05
-0.0012455089499723928
-0.0013188897223834148
-0.0017653042705413947
-0.000654618632340004
-0.004439092493650577
0.0019051293134138814
-0.005881116480013289
-0.00017566612507358142
-0.0018065630298472707
0.001852223159829197
-0.0005305021669881836
-0.0016439003090094385
0.00017542489365032042
0.0017968889003943198
-0.0018663857557365635
0.0017131201034913694
0.0007881971946755329
0.0011007747243045086
0.0014854924824828498
0.002330277006253063
-0.0019254977489784452
0.001747841782020038
0.001628466062727141
0.00452613681231964
-0.0020450728005086223
0.000922424709155574
0.001977173499737341
0.0029946719681793244
0.0013340304575093756
0.0016758779485551928
-0.0020678929032751127
0.0012135147538972757
0.000768360599616919
0.0011041506283227852
-0.002128644139230394
-0.0010675718642038116
0.0002384833850069768
0.0016217014086869189
-0.002208383816982983
0.001788265097237792
-0.00022477729787583593
0.0015545671893180252
-0.0022742700457588326
-0.0021952455786379177
-0.0006140992513725424
0.00103729408716421
-0.0023566671786583154
0.0018176832940499012
-0.0008991761035016392
0.001485826397854591
-0.0023813857425027006
0.0023974679738661513
-0.001063463754400648
0.0014066037083117103
-0.0024484855519891955
-0.00015544005802318154
-0.0010901238232754688
0.0012076593597416714
-0.002451242098943483
0.0016988786358257098
-0.0009360398010734297
0.0013519243204435578
-0.0005203303046476112
4.8588221040673615e-05
-0.0024535050816962447
0.0012387273201224314
0.0003017014459303812
0.0023259450992801915
-0.0024163264574711173
9.538242371967957e-05
0.0021266457289942273
0.00012032213279246176
-0.002059997807603504
0.0005986001122088332
0.004210476087853221
-0.0011248306995853856
0.0057285675338339
0.0009741766756526353
-0.00189329769837769
0.005591529133503206
-0.0014013490393534076
0.0013396239977536662
0.006098052563050402
0.00011747126514399925
-0.0005868405820925672
-0.0005834812499510494
0.0006283327852470319
-0.0006949291798165825