# vtk DataFile Version 1.0
GRUMMP topologically 2D mesh
ASCII

DATASET UNSTRUCTURED_GRID
POINTS 4142 float
  0.9902132100051211  -0.0013897599745845   0.0000000000000000
  0.9878682672001325  -0.0017209544766007   0.0000000000000000
  0.9922830260938109  -0.0010965337451688   0.0000000000000000
  0.9852627687065505  -0.0020876945602550   0.0000000000000000
  0.9824126515147726  -0.0024873693035198   0.0000000000000000
  0.9941016532545700  -0.0008382294190312   0.0000000000000000
  0.9793229395886266  -0.0029189889321549   0.0000000000000000
  0.9759912936709813  -0.0033826574903297   0.0000000000000000
  0.9957253756688895  -0.0006072067599891   0.0000000000000000
  0.9724158418644283  -0.0038783672872607   0.0000000000000000
  0.9972114818934485  -0.0003956828894990   0.0000000000000000
  0.9685983419668763  -0.0044053177853816   0.0000000000000000
  0.9986172604849257  -0.0001958749290171   0.0000000000000000
  0.9645418982154840  -0.0049624143705746   0.0000000000000000
  0.9602493276520160  -0.0055486932126648   0.0000000000000000
  1.0000000000000000   0.0000000000000000   0.0000000000000000
  0.9557225436143375  -0.0061636003738353   0.0000000000000000
  0.9986172604763917   0.0001958749302285   0.0000000000000000
  0.0136778115501445  -0.0198442283865115   0.0000000000000000
  0.9509632892996972  -0.0068066585239019   0.0000000000000000
  0.0111799405480040  -0.0180409152078963   0.0000000000000000
  0.9972114818757430   0.0003956828920181   0.0000000000000000
  0.0164236219435115  -0.0216216850259729   0.0000000000000000
  0.9459737546847580  -0.0074771440326796   0.0000000000000000
  0.0194159763686392  -0.0233724637256901   0.0000000000000000
  0.0089312659290954  -0.0162123970812813   0.0000000000000000
  0.9957253756403164   0.0006072067640564   0.0000000000000000
  0.9353156997544615  -0.0088958032333210   0.0000000000000000
  0.0226532123065557  -0.0250954152174871   0.0000000000000000
  0.0261336316774566  -0.0267893559859237   0.0000000000000000
  0.0068429846519911  -0.0142695304151425   0.0000000000000000
  0.9237713702124288  -0.0104115615140689   0.0000000000000000
  0.0298554003449755  -0.0284531869488138   0.0000000000000000
  0.9941016532123735   0.0008382294250309   0.0000000000000000
  0.0050308200222286  -0.0123013782195995   0.0000000000000000
  0.0012596550434314  -0.0062543845982477   0.0000000000000000
  0.9113626015789812  -0.0120184565864932   0.0000000000000000
  0.0338165365583016  -0.0300859006297539   0.0000000000000000
  0.0005600587198625  -0.0041872521188657   0.0000000000000000
  0.0034956879705714  -0.0103096477045821   0.0000000000000000
  0.0380150486067802  -0.0316864834866382   0.0000000000000000
  0.0001400674572995  -0.0020989425108620   0.0000000000000000
  0.0424489169588349  -0.0332538061244847   0.0000000000000000
  0.8981160449036193  -0.0137076729882106   0.0000000000000000
  0.9922830260341767   0.0010965337536290   0.0000000000000000
  0.0022384105171692  -0.0082946477552229   0.0000000000000000
  0.0000000000000000  -0.0000000005380880   0.0000000000000000
  0.0471161050109934  -0.0347866680569130   0.0000000000000000
  0.8692172420003259  -0.0173025512123363   0.0000000000000000
  0.8840586048664243  -0.0154712341935952   0.0000000000000000
  0.8536242589802903  -0.0191927756559575   0.0000000000000000
  0.0520144653095357  -0.0362838744017245   0.0000000000000000
  0.9902132099234322   0.0013897599861408   0.0000000000000000
  0.0001400673054027   0.0020989413744649   0.0000000000000000
  0.0005600583994229   0.0041872509286527   0.0000000000000000
  0.0089312642537700   0.0162123956290166   0.0000000000000000
  0.0068429832427153   0.0142695290019493   0.0000000000000000
  0.0022384098100130   0.0082946464730838   0.0000000000000000
  0.0034956870455263   0.0103096463775504   0.0000000000000000
  0.0050308188630767   0.0123013768482443   0.0000000000000000
  0.0111799386902237   0.0180409137864515   0.0000000000000000
  0.8373107726191357  -0.0211334926288444   0.0000000000000000
  0.0624935355792051  -0.0391666954139108   0.0000000000000000
  0.9878682670932252   0.0017209544916756   0.0000000000000000
  0.0136778095139640   0.0198442269960848   0.0000000000000000
  0.8203090273240524  -0.0231167391866414   0.0000000000000000
  0.0738633143603066  -0.0418930499584099   0.0000000000000000
  0.8026551811301268  -0.0251343400368426   0.0000000000000000
  0.9852627685719384   0.0020876945791685   0.0000000000000000
  0.0861021386417074  -0.0444536409739349   0.0000000000000000
  0.7843840873894279  -0.0271778197795966   0.0000000000000000
  0.9824126513500548   0.0024873693265746   0.0000000000000000
  0.0991843265815398  -0.0468392532814141   0.0000000000000000
  0.0164236197329729   0.0216216836667636   0.0000000000000000
  0.7461418339277840  -0.0313078737465108   0.0000000000000000
  0.9793229393907722   0.0029189889597428   0.0000000000000000
  0.1130825286139299  -0.0490420520078216   0.0000000000000000
  0.7058944105034720  -0.0354399888107516   0.0000000000000000
  0.1277704618123611  -0.0510562827506626   0.0000000000000000
  0.1762568929815641  -0.0559042078350805   0.0000000000000000
  0.0194159739879911   0.0233724623981675   0.0000000000000000
  0.6639684116827792  -0.0395008026994765   0.0000000000000000
  0.1937838883744062  -0.0571083155282771   0.0000000000000000
  0.9759912934368556   0.0033826575228533   0.0000000000000000
  0.2119350336566717  -0.0581032139582273   0.0000000000000000
  0.1432165586985055  -0.0528747491799113   0.0000000000000000
  0.1593891568184451  -0.0544918670991958   0.0000000000000000
  0.0226532097601106   0.0250954139222151   0.0000000000000000
  0.6207078411914361  -0.0434191082996254   0.0000000000000000
  0.5764634620046084  -0.0471137377839725   0.0000000000000000
  0.9724158415910057   0.0038783673250912   0.0000000000000000
  0.2306739249637577  -0.0588890260835713   0.0000000000000000
  0.0261336289695199   0.0267893547234291   0.0000000000000000
  0.5315950381341085  -0.0505057454921963   0.0000000000000000
  0.4864703588817339  -0.0535094604401647   0.0000000000000000
  0.4414549182767121  -0.0560390634426787   0.0000000000000000
  0.9685983416513994   0.0044053178288238   0.0000000000000000
  0.2697570606452168  -0.0598365819607799   0.0000000000000000
  0.3969170552729402  -0.0580119076690758   0.0000000000000000
  0.0298553974799863   0.0284531857194991   0.0000000000000000
  0.9645418978552561   0.0049624144199126   0.0000000000000000
  0.3107174127482247  -0.0599745523566999   0.0000000000000000
  0.3532197168655907  -0.0593474025151865   0.0000000000000000
  0.9602493272443249   0.0055486932681955   0.0000000000000000
  0.0338165335406938   0.0300858994339835   0.0000000000000000
  0.0380150454409591   0.0316864823247920   0.0000000000000000
  0.9557225431564565   0.0061636004358678   0.0000000000000000
  0.0424489136491938   0.0332538049970267   0.0000000000000000
  0.0471161015618897   0.0347866669642923   0.0000000000000000
  0.9509632887889385   0.0068066585927330   0.0000000000000000
  0.9459737541185675   0.0074771441085412   0.0000000000000000
  0.0520144617255517   0.0362838733443521   0.0000000000000000
  0.9353156990700551   0.0088958033238094   0.0000000000000000
  0.0624935317401540   0.0391666944281135   0.0000000000000000
  0.0738633102849253   0.0418930490455120   0.0000000000000000
  0.9237713694002159   0.0104115616199952   0.0000000000000000
  0.0861021343485112   0.0444536401350998   0.0000000000000000
  0.9113626006299211   0.0120184567085017   0.0000000000000000
  0.0991843220904188   0.0468392525175462   0.0000000000000000
  0.8981160438094651   0.0137076731266115   0.0000000000000000
  0.1130825239435962   0.0490420513187447   0.0000000000000000
  0.8840586036192291   0.0154712343488011   0.0000000000000000
  0.1277704569818227   0.0510562821360933   0.0000000000000000
  0.8692172405930260   0.0173025513845012   0.0000000000000000
  0.1432165537277111   0.0528747486397878   0.0000000000000000
  0.8536242574066383   0.0191927758449732   0.0000000000000000
  0.1593891517258480   0.0544918666322352   0.0000000000000000
  0.8373107708732270   0.0211334928345504   0.0000000000000000
  0.1762568877862003   0.0559042074398506   0.0000000000000000
  0.8203090254010921   0.0231167394087162   0.0000000000000000
  0.1937838830953411   0.0571083152030304   0.0000000000000000
  0.2119350283118140   0.0581032137003017   0.0000000000000000
  0.8026551790260408   0.0251343402747870   0.0000000000000000
  0.2306739195716207   0.0588890258904683   0.0000000000000000
  0.7843840851007032   0.0271778200327233   0.0000000000000000
  0.2697570552113356   0.0598365818878674   0.0000000000000000
  0.7461418312636445   0.0313078740273454   0.0000000000000000
  0.3107174073396524   0.0599745523895525   0.0000000000000000
  0.3532197115457904   0.0593474026374948   0.0000000000000000
  0.7058944074605978   0.0354399891145804   0.0000000000000000
  0.6639684082655058   0.0395008030201497   0.0000000000000000
  0.3969170500997217   0.0580119078642495   0.0000000000000000
  0.6207078374111498   0.0434191086291270   0.0000000000000000
  0.5764634578798972   0.0471137381129498   0.0000000000000000
  0.5315950336908907   0.0505057458089039   0.0000000000000000
  0.4864703541532008   0.0535094607315534   0.0000000000000000
  0.4414549133024901   0.0560390636939180   0.0000000000000000
  0.9901595609719056  -0.0023783411927147   0.0000000000000000
  0.0326649145266362  -0.0334200843455863   0.0000000000000000
  0.9878329678703356  -0.0027145673674890   0.0000000000000000
  0.0733998606732272  -0.0440344159407381   0.0000000000000000
  0.9922372924577029  -0.0020726951087579   0.0000000000000000
  0.8846838814295012  -0.0208009306521702   0.0000000000000000
  0.9852539181750185  -0.0030832573491977   0.0000000000000000
  0.8205556230767344  -0.0253024477924150   0.0000000000000000
  0.9824277530968584  -0.0034836508822686   0.0000000000000000
 -0.0022154120548041  -0.0049277430541563   0.0000000000000000
[...]
POINT_DATA 4142
SCALARS continuity float
LOOKUP_TABLE default
0.003463748228710075
0.003230886149215949
0.004256844606163934
0.0028628556449684433
0.0026458566844176877
0.002454075742360419
0.0024659396944442837
0.0023360475565195296
0.005893706882719425
0.0022231499968311643
0.005540499842049803
0.0021710258050782424
-0.1421269648401625
0.0020815397705009745
0.002051144487618789
-0.023491018781095174
0.0020076249468208174
-0.139814225072474
0.01884458316361195
0.0018914628346344174
0.020173473181452427
0.005503587400436338
0.017574179276416326
0.001953449022478817
0.0162475571699047
0.02021426388743573
0.007030485473818626
0.0018838528506509053
0.014906443762815955
0.013590995531663857
0.02155725328131452
0.0019136583739483416
0.012351949698400744
0.003274914546742926
0.021535486937583427
0.019533937405144548
0.0018452290152548105
0.011216663192675544
0.018390208934320876
0.021236480047583658
0.010155175380011058
0.017244979581241975
0.009208616269483688
0.0017309758138777931
0.004826822901484791
0.020538225598124366
0.015963843942547434
0.007126137259577031
0.0014293314011706822
0.001563828709656463
0.0012830382838471474
0.009637316628062612
0.004036544457512835
0.01326630189105849
0.021449796504066542
0.016729953017239375
0.017206269156350738
0.01014477702942486
0.01953427149632016
0.017345255054951624
0.017343901322060318
0.0012014030025159043
0.005244298107905452
0.0036926544348053676
0.016681948707208925
0.0010682217839216937
0.005432538186050151
0.0010082431030150898
0.00330895492649333
0.0044927032473377594
0.0008711511608061782
0.0029841098491410326
0.0037206586211974307
0.015952362331311778
0.0007166582037543376
0.002772340878519028
0.0031979666579437936
0.0003926861639029901
0.002883373324165218
0.002841253558468303
0.015103210790541671
0.000419277331691082
0.003073664117496028
0.0026097190532414164
0.002723289385370782
0.0027415141319973007
0.002735148159575553
0.014141010063597793
0.0007902014474521982
0.001526348850526602
0.002494641025356843
0.004461884563937128
0.013126337341739886
0.002656558395765877
0.004099875312019896
0.005540803221971105
0.0023805882564230103
0.004445130069962907
0.006589627323725908
0.012118129539681593
0.0023294542518348233
0.006497676085602752
0.006914246876651901
0.0022451982847808026
0.011171993651717203
0.010245707487894183
0.002238553637634957
0.0094151997904805
0.007436004005333774
0.00218507016882229
0.002090032230231771
0.010021162718723378
0.0020991955887197386
0.0056364369459266685
0.005674380290105449
0.0020631933519452516
0.004555530856584381
0.0020009461367283877
0.0036107512695913
0.0018256797854107607
0.002921898223737346
0.0016530669077860116
0.002443045771885154
0.001425351910169848
0.0021461616620473785
0.0012876017997282025
0.0019906952238939605
0.0010788726700818338
0.0019581751464482146
0.0009846421144792002
0.0020716118098143615
0.0016317220154746473
0.0008224862369368656
0.003312728821236895
0.0006334018854374837
0.0031231968429128714
0.0004006795992126682
0.004952799166574546
0.005213959168305566
-5.312933481474105e-05
-0.00013879863642916944
0.004888445756350738
6.0448990386408464e-05
0.000608883056606441
0.0015346828513833313
0.0027461577024178144
0.003975766947552998
0.003131678571244823
0.011159008389198156
0.003153237419487113
0.004232231742876314
0.004320086662092931
0.0013140379311979574
0.002801639306464008
0.0010454848633646634
0.002611723006758217
0.011806817150729154
0.0003345902546463731
0.015829168066971985
0.0024399081322034073
0.005432354181094622
0.002315194994693651
0.003565041584132293
0.010566547932694402
0.016517154856380632
0.002208039999499361
0.0041466893255517395
-0.01621959405563102
0.0011856479090766353
0.00216100914305445
0.0011780213530790842
0.01865897746432252
0.010028362848021144
0.0020765535460941635
0.016425633761940533
0.0020503077677386885
0.0033863386989875736
-0.050358230086488556
-0.04988231529119099
-0.02525223171439793
-0.02297278272980839
-0.018992652290135692
-0.02295082515010122
-0.025409489848273573
0.0020108198974996805
0.016126135661384638
0.020717425589769984
0.010297583740051804
0.014647580183661007
0.016498342858186243
0.0018998567040627115
0.009315029648548934
0.016099015110819664
0.014294024676081813
-0.015126106696793675
0.009087362931186123
0.013303962668709157
0.01635021722801577
0.0019637969905803776
0.008149215767941002
0.012025828360874713
0.01651691759809155
0.017176598237020554
0.0016167836668417842
0.011250037211928795
0.010960353692896134
0.0018967033128720052
0.0078091758509891696
0.010834831997487256
0.009792723479171072
0.009728597742701498
0.004390711486208442
0.018494773623554624
0.0038212210146710726
0.001927553957323281
0.011132631803865917
0.008734155499949532
0.006821691879748248
0.0012023482231628799
0.015170778582005667
0.019272917897006244
0.0012608940891754516
0.01844048742621663
0.013185986004511839
0.0018582909344075152
0.0015410996944819277
0.007861600722581276
0.009156611771744476
0.017154544372741762
0.0014053857091632712
0.019594995858924033
0.009449767430936366
0.007076741238308464
0.006264152471004217
0.01576889380552851
0.007500803533635734
0.006446838532250721
0.010575183554991619
0.001744036898730159
0.0040186641003334845
0.004825467138409875
0.017691953481265597
0.019301176447191752
0.0013254079352911508
0.014153461807816101
0.005051621457642492
0.005284485770294961
0.006570997772308766
0.0014393576152033534
0.0017043302021361375
0.001576321800196484
0.001457097625483594
0.00129235065681094
0.007734170149813938
0.006196500906770242
0.0014705215912126516
0.0037045476223360975
0.011980422867904489
0.01288215966078933
0.001181586237393968
0.01446213246869121
0.008550770000933667
0.014139425141277842
0.007243310390849579
0.014695505041927565
0.01915757024256503
0.015110996634880507
0.007745072478399264
0.01721614872402658
0.013755799593681046
0.015514470690587586
0.010709749756739185
0.013744604291244423
0.0096038054717816
0.001209039715735302
0.0034685320511213154
0.0035583637275539057
0.0018159302171542413
0.003593413167372239
0.009740541310079339
0.012925956491910195
0.015793489858638772
0.0010768859543675078
0.008809541396762266
0.0037742711430183294
0.02000074455172317
0.0010160156600561366
0.008757137441642285
0.0032331299532398676
0.003719742301126596
0.0031119069424081526
0.00932430286780697
0.0008767034099406296
0.010786316994641314
0.0029347725004394295
0.002842374371771002
0.002573731801847933
0.0018848319036444325
0.012071107630220108
0.015165478378863027
0.0007218696429602989
0.020255285742786025
0.0027353183727026405
0.011423106087608804
0.0022408301650615856
0.012090829875374694
0.00039396169355513565
0.014737557819335547
0.0020812997094696787
0.013506522121963311
0.002366203456213458
0.0009654721577420615
0.01120500857651695
0.0018552078469880543
0.0004185084980553892
0.012092787744902774
0.0026823179069542847
0.011721760804974378
0.002579482890103876
0.014378395786624426
0.002454160263338466
0.0198280346708125
0.0020692882336742443
0.014058797064243159
0.0021730061258233625
0.014973588273744821
0.010329606498297237
0.00462376494263441
0.0007864079985956147
0.0019273181209666721
0.0015167599528152199
0.014299918315106578
0.002470239879934435
0.016443339215842002
0.004072220278046317
0.010146848254741095
0.009464259334400548
-0.0008701966319048187
0.002640516381483139
0.015441331633332623
0.004074647150141041
0.019085219442952293
0.005500739111389189
0.001089048071088951
0.0023631310135496793
0.0018594214988413562
0.0042615786443043965
0.0011004687820845582
0.006527940431500863
0.01781957508168493
0.008662946691134939
0.012192738686502969
0.002317302893307086
0.060267154712125334
0.006359697456569914
0.005034994773851064
0.006821130331396431
0.001973764192418442
0.0022379961056512975
0.0009161941206603203
0.007927406131807728
0.0020137225869752626
0.0072497501350174956
0.00328903009739048
0.0022367382661889665
0.0020409776132088455
0.006709680035977014
0.0015755295183242557
0.005639271158476788
0.0561153949153287
0.002186299784783907
0.01538409657245093
0.002094261922213906
0.0021291755537137316
0.006575987783495955
0.0008275443981134639
0.00210818466460307
-0.0011182196236606274
0.003948805070913541
0.0009679583530239554
0.00399574651768786
0.0021759275958598205
0.00207163193039432
0.01171587690011103
0.0031443341341152206
0.010496633139378486
0.002008534364300469
0.004829828971373872
0.0024288261871563527
0.0022863650808272076
0.0018338824424960986
-0.0006906722002747328
0.0019273233418950827
0.002408733157243835
0.0016600687859806772
0.0009024502668881657
0.001604557458223018
0.0030047232516523014
0.001430668344010508
0.015190238365788557
0.0014370426398739055
0.0025786130765795734
0.0012908407451515604
0.0029702143387169244
0.0013925876325538602
0.002763026380227328
0.0010823801831851235
0.010035377965732213
0.001450074873006305
0.004501313837619884
0.0009860274087440549
0.0037897543430505474
0.001649401068794473
0.003135025102176534
0.0013397390481384272
0.0036656476162368135
0.0008191609018547947
0.003271826542056538
0.0028906396788382868
0.0007685320581167831
0.0006358362360901781
-0.009640290864795642
0.002917766018727751
0.008002933146824008
0.0003974521391615402
-0.00648081335434699
0.004795983544492267
0.0027141383289189004
0.005104569028069648
-0.00800851076444323
-5.789880966787645e-05
0.012919745110867633
-0.00014806192255424698
-0.007026865484662734
0.004812889780862326
0.002953101097007226
4.801335489616767e-05
-0.013932623038988255
0.0005904002027817922
0.002910716874598574
0.0015088919730891015
0.004979486126805379
0.002710486888530125
0.01510998222566908
0.003923250809300109
-0.01322576421953572
0.0009805103893109329
0.0012418618691467623
0.0031868731568774717
0.0017260849801712258
0.003399092605218714
0.001045089228108608
0.0008475342120576451
0.013540158385199409
0.002897043857514933
0.0068692934477158065
0.0027374260431790457
0.017444634452885497
0.015015958203036209
0.009359025834020356
0.0006877556675760188
0.003210828676607446
0.0027052938263639192
0.010449936566005983
0.0023139623135719663
0.012324252806246699
0.00036054975738752866
0.003259065457348674
0.002092407454685645
0.0017924058046082686
0.0022774936124845655
0.007841372087506028
0.014028441621639215
0.017977963457139697
0.0003855669420575146
0.007750254576149009
0.0025928995755225724
0.013501945330652002
0.002551760140126999
0.0073168750527377365
0.002316945225527009
0.0146505054348812
0.002036246466241601
0.008203636941901026
0.002107504138001315
0.0017599034550024172
0.01293248773518039
0.002085706683365012
0.0007535318277261282
0.008137863542767194
0.0014837282691260736
0.0134804137755366
0.002439759321430369
0.01808227069815222
0.003947343512734086
0.010643721367352286
0.011808494583915287
0.015703205780568913
0.0026068313166312637
0.0006291470217234633
0.0040375075146142515
0.0018312295766904675
0.005458742481600882
0.013120355419643919
0.002329768394300834
0.016628923235267608
0.004137838059061368
0.0006463880987825593
0.006475421141286665
-0.0008593687419804562
0.010724816288488431
0.010206173855698487
0.0022818089417975394
0.017918138048090466
0.006263353716838851
0.012134235727845995
0.006747742658038839
0.0017586012353358238
0.002198660786733876
0.012189104831120115
0.0097079346957599
0.01736649857659385
0.008777292395988493
0.004229320227279614
0.002194269559322858
0.01858169690356342
0.008060913633119483
0.012713782515442026
0.006694672888411941
0.0018745397732546861
0.0021379981218186154
0.008523614467699434
0.0020499597817891136
0.0019111259353057444
0.007283440047610468
0.013748383016966785
0.0020618222635346737
0.0019318802923180855
0.004623500001201109
0.0007656838567125727
0.004539511865949495
0.01797990804822654
0.0020231914083489975
0.0009669148092934447
0.0035130242974526385
0.002018170784724
0.0019623026183182325
0.010892597166587251
0.002666329732174113
-0.0016318837172490822
0.00178970561883578
0.00683067556936702
0.00206789987234957
0.002056237543420395
0.0016198802096366938
0.0004920869253113982
0.0016753513701992194
0.007539551582177144
0.0013930611352569728
0.003013614242173831
0.0014571234148874135
0.002158977830515575
0.0012559779990736783
0.0013435491174347883
0.001376447577699895
0.0022663304087430754
0.0010486325812362348
0.013845575120466181
0.0014056031152815925
0.002545270191222514
0.0009529156168376951
0.0005108873891377041
0.0015970329447875353
0.0024161249826682744
0.0012319515476220233
0.0008315604222221355
0.0007838168562995363
0.0025603226415120577
0.0027946958712753963
0.009867627786965802
0.0006043335048715552
0.003926592061322412
0.002818362685494961
0.006305760173411646
0.00036346795188780124
0.0028878830015802185
0.004719760600391379
0.0008854043530563938
0.005046917221235287
0.0029474392237618372
-9.27452547279695e-05
0.0007665128058530455
-0.0001806483297104489
-0.009463948208087266
0.004769951592871782
0.012777105105698362
1.527619302389895e-05
-0.009809558504758906
0.0005584041571020592
0.002713836243361737
0.0014770304786573044
-0.00954790905994903
0.0026769354186166904
0.008408211927715174
0.0038873746894884102
-0.009669738246613453
0.0016382938241288494
0.0006064353828737143
0.004915012135533631
0.002549579817641172
0.015650457687319718
0.002389075078857256
0.006683338715162565
0.00027547759574948874
0.013580694866241205
0.0020618769731878873
0.006039466039124331
0.002065143036472825
0.014179486974623255
0.014624672100237015
0.007070755054973322
0.00030192378073519535
0.0016047767433993885
0.002353833024275294
0.0017099213478364377
0.002413078359830711
0.007246250972175364
0.002029278519988383
0.011339204007511908
0.001925705495406392
0.015805586637627368
0.0019382699643247865
0.007923245395818927
0.013945395933885708
0.01469601043567586
0.0006699156314366013
0.011095590099375588
0.0013989920937548298
0.0151470183829441
0.0023127077094367106
0.00022456634424009942
0.0036677150385456985
0.0032043534868906698
0.013115792995867582
0.008388319840162682
0.002517379782842697
0.015752001064067357
0.0039388378301677815
0.010342554904754513
0.005341866143679241
0.0015964246049562604
0.002207374734809847
0.0100423930257579
0.0038573806351906398
0.015496677583585347
0.006327512006088424
0.004885470617117709
0.01219961137074721
0.02174179209760505
0.0021668312544618025
0.010705403211412922
0.006015602276166232
0.0017123763165991768
0.006554846354863514
0.007123076793146216
0.0020845939279008625
0.0017441486473234625
0.011236707366377512
0.011469265473117746
0.010271810558686567
0.0017563716702854366
0.0020841681214728617
0.00034075711539080847
0.009457676399778653
0.019966647384820686
0.008005848525855182
0.0007520540617597415
0.0020283433248493798
0.0018417948683810868
0.0019410494930699675
0.0033287127551010313
0.008297588679727328
0.007976639268626073
0.001958246412103006
0.0026313976452332593
0.005627183563052215
0.008376320661597277
0.0052560015504605605
0.0018627387840871978
0.0019224042758294274
1.0337028707900438e-05
0.004024732550057279
0.006423658759868536
0.0018644799292098797
0.002652197805310666
0.0029999950451485573
0.001954427695371272
0.001694790273838924
0.001016663815500017
0.002254531569480411
0.0020471540300010093
0.0015293383990215284
0.011497941391635612
0.0017489353340061737
0.003096835567411871
0.001305808726171431
8.92188962585652e-05
0.0014439717740812753
0.00218306972223322
0.0011721299859597494
0.0006172523422750841
0.0012943430528738705
0.0023145665233344466
0.000966718724908261
0.008322458752498839
0.0012729463467603275
0.0035722803239952605
0.0008702561795268099
0.008054519686512293
0.0014299047950309142
0.002638571579110368
0.0010092581438690435
-0.0005881711965214602
0.0007003305671626253
0.002771352748427984
0.002571182022125532
0.0005477706716068118
0.0005214448027082407
-0.0012213703883534172
0.0025897982386372995
0.010884161213596505
0.0002781459106056494
-0.0032726232589006567
0.004516393680960886
0.0024053447052620374
0.004885828859440975
-0.0016223508613556448
-0.00017921244517222324
0.005299141259464537
-0.0002655152509745498
-0.00025822686139277944
0.00464402166135049
0.006805231061006025
-6.806259568700715e-05
0.0003668693777775368
0.00047497603170267456
0.002967488993021665
0.0013904265327815716
0.001770864143174568
0.002585651779304699
0.00040679320463673954
0.0037836963139548205
0.001678735257341719
0.004980850700498708
0.0024630860697451135
0.011141761084260493
0.003856525619062024
0.0025255509417381966
0.013813007733330754
0.0014037308352793205
0.0004665898290818431
0.0024027373060652047
0.0023158111268241845
0.013087290960183236
0.0030288436677982367
0.005616070730783002
0.00013121804776138564
0.011400535621650441
0.00247538968574026
0.005124647846553891
0.0019927855065688116
0.011692267743553903
0.01368231513547527
0.006001768636256914
0.00016032856275966547
0.0013723734270669878
0.002174201883122232
0.0007187908299330436
0.002195764923388623
0.005071809653200352
0.001730433944256854
0.009528849076946665
0.002149227318006412
0.013104496127087426
0.0019999109565000286
0.0050123233188370826
0.013435133502325518
0.012005821582870396
0.0005299313243134596
0.009400953725024848
0.0012566162225200607
0.012327392290397319
0.0021109356236530025
-0.0002588902937548852
0.00331950892604843
0.003012505044917287
0.01307296493942687
0.006958529075213346
0.002368826801037653
0.012932610530144948
0.0037763435657206055
0.008970842899124051
0.005149028258206843
0.0013557407100394127
0.0020125578961684393
0.00833889627108817
0.00345916896580864
0.012646739934059053
0.006084187648514514
0.00403032497022382
0.012636518923294732
0.008293355270521253
0.0019840447501341596
0.009044540985276725
0.005643965292793623
0.0014742846900530119
0.006245473534997606
0.006073469687760866
0.0019010837548451192
0.001499306371283564
0.012100139277403638
0.009507629797976641
0.011508203027089325
0.0014965146337868442
0.0019076066051925407
-0.00014771365852400873
0.010955402479134445
0.007642897227213686
0.009749570115273581
0.00043742230900433354
0.0018570950933317597
0.0015831897247619911
0.009881537989644983
0.005193689109663525
0.001792511141281242
0.002481930837377652
0.007458061475365336
0.007800392093174124
0.006809096457218039
0.0015833979486770415
0.0017567349887633791
0.0015022222006755407
0.005334110512414507
0.004521617766109685
0.001702807957541615
0.0022977742440788273
0.004046781672497838
0.0016707526941262868
0.0015378783671479003
0.0005964337626055341
0.0030478107711844654
0.0017580573438183763
0.0013775165121621663
0.00936250735399384
0.0023166540298497204
0.002827144620566575
0.0011590161846457725
-0.00039235665690945116
0.0018185835994738847
0.0018878932231030376
0.0010296366142054205
0.0002985820492243491
0.0015011559334248228
0.0020047057123897256
0.0008249992570281209
0.007117918034730969
0.0013375508263267315
0.0030298938832939142
0.0007307577868017456
0.00824253164027107
0.0013785343721064904
0.002304615917396359
0.0008300360426768962
0.006626410015175475
0.0005590129186985448
0.0024409526854361494
0.0023304525445596034
0.00023104261497741192
0.0003785492020957256
-0.0016420329671020272
0.0022916870406550316
0.009480571375186656
0.0001351445416021578
-0.002818629279522298
0.004228202903585537
0.002050341008640795
0.004641486123748561
-0.0018180228894758245
-0.0003235114662385237
0.0024009687880316016
-0.0004055668288825122
0.0002293275930664264
0.004447159942815289
0.007810837837580273
-0.00020372158076801392
0.0005554875289050816
0.00034049681552046
0.0025782503762872763
0.001255499985522667
0.0015190088197512871
0.002443426933129884
8.18780555039055e-05
0.0036210006468087546
0.0014484654663151262
0.002656068100152122
0.0021543787683308614
0.008110802144846276
0.0055737040848831
0.002243724432816992
0.011456574067788501
0.0010788181245489038
0.00024053704986232158
0.004764026417582923
0.0020202168166633147
0.011088606215445475
0.00451959004516462
0.004818230410456566
-9.632644534896268e-05
0.008335722409026369
0.003688938430996869
0.004636351089561955
0.002370702983536128
0.00866904360137591
0.011367027567873559
0.005187076279184329
-6.32261640584522e-05
0.001051855814703542
0.002310718477310444
-0.0008209030578117783
0.0019055755473803247
0.004024063809178391
0.0016215209575413615