# vtk DataFile Version 1.0
GRUMMP topologically 2D mesh
ASCII

DATASET UNSTRUCTURED_GRID
POINTS 4142 float
  0.9902132100051211  -0.0013897599745845   0.0000000000000000
  0.9878682672001325  -0.0017209544766007   0.0000000000000000
  0.9922830260938109  -0.0010965337451688   0.0000000000000000
  0.9852627687065505  -0.0020876945602550   0.0000000000000000
  0.9824126515147726  -0.0024873693035198   0.0000000000000000
  0.9941016532545700  -0.0008382294190312   0.0000000000000000
  0.9793229395886266  -0.0029189889321549   0.0000000000000000
  0.9759912936709813  -0.0033826574903297   0.0000000000000000
  0.9957253756688895  -0.0006072067599891   0.0000000000000000
  0.9724158418644283  -0.0038783672872607   0.0000000000000000
  0.9972114818934485  -0.0003956828894990   0.0000000000000000
  0.9685983419668763  -0.0044053177853816   0.0000000000000000
  0.9986172604849257  -0.0001958749290171   0.0000000000000000
  0.9645418982154840  -0.0049624143705746   0.0000000000000000
  0.9602493276520160  -0.0055486932126648   0.0000000000000000
  1.0000000000000000   0.0000000000000000   0.0000000000000000
  0.9557225436143375  -0.0061636003738353   0.0000000000000000
  0.9986172604763917   0.0001958749302285   0.0000000000000000
  0.0136778115501445  -0.0198442283865115   0.0000000000000000
  0.9509632892996972  -0.0068066585239019   0.0000000000000000
  0.0111799405480040  -0.0180409152078963   0.0000000000000000
  0.9972114818757430   0.0003956828920181   0.0000000000000000
  0.0164236219435115  -0.0216216850259729   0.0000000000000000
  0.9459737546847580  -0.0074771440326796   0.0000000000000000
  0.0194159763686392  -0.0233724637256901   0.0000000000000000
  0.0089312659290954  -0.0162123970812813   0.0000000000000000
  0.9957253756403164   0.0006072067640564   0.0000000000000000
  0.9353156997544615  -0.0088958032333210   0.0000000000000000
  0.0226532123065557  -0.0250954152174871   0.0000000000000000
  0.0261336316774566  -0.0267893559859237   0.0000000000000000
  0.0068429846519911  -0.0142695304151425   0.0000000000000000
  0.9237713702124288  -0.0104115615140689   0.0000000000000000
  0.0298554003449755  -0.0284531869488138   0.0000000000000000
  0.9941016532123735   0.0008382294250309   0.0000000000000000
  0.0050308200222286  -0.0123013782195995   0.0000000000000000
  0.0012596550434314  -0.0062543845982477   0.0000000000000000
  0.9113626015789812  -0.0120184565864932   0.0000000000000000
  0.0338165365583016  -0.0300859006297539   0.0000000000000000
  0.0005600587198625  -0.0041872521188657   0.0000000000000000
  0.0034956879705714  -0.0103096477045821   0.0000000000000000
  0.0380150486067802  -0.0316864834866382   0.0000000000000000
  0.0001400674572995  -0.0020989425108620   0.0000000000000000
  0.0424489169588349  -0.0332538061244847   0.0000000000000000
  0.8981160449036193  -0.0137076729882106   0.0000000000000000
  0.9922830260341767   0.0010965337536290   0.0000000000000000
  0.0022384105171692  -0.0082946477552229   0.0000000000000000
  0.0000000000000000  -0.0000000005380880   0.0000000000000000
  0.0471161050109934  -0.0347866680569130   0.0000000000000000
  0.8692172420003259  -0.0173025512123363   0.0000000000000000
  0.8840586048664243  -0.0154712341935952   0.0000000000000000
  0.8536242589802903  -0.0191927756559575   0.0000000000000000
  0.0520144653095357  -0.0362838744017245   0.0000000000000000
  0.9902132099234322   0.0013897599861408   0.0000000000000000
  0.0001400673054027   0.0020989413744649   0.0000000000000000
  0.0005600583994229   0.0041872509286527   0.0000000000000000
  0.0089312642537700   0.0162123956290166   0.0000000000000000
  0.0068429832427153   0.0142695290019493   0.0000000000000000
  0.0022384098100130   0.0082946464730838   0.0000000000000000
  0.0034956870455263   0.0103096463775504   0.0000000000000000
  0.0050308188630767   0.0123013768482443   0.0000000000000000
  0.0111799386902237   0.0180409137864515   0.0000000000000000
  0.8373107726191357  -0.0211334926288444   0.0000000000000000
  0.0624935355792051  -0.0391666954139108   0.0000000000000000
  0.9878682670932252   0.0017209544916756   0.0000000000000000
  0.0136778095139640   0.0198442269960848   0.0000000000000000
  0.8203090273240524  -0.0231167391866414   0.0000000000000000
  0.0738633143603066  -0.0418930499584099   0.0000000000000000
  0.8026551811301268  -0.0251343400368426   0.0000000000000000
  0.9852627685719384   0.0020876945791685   0.0000000000000000
  0.0861021386417074  -0.0444536409739349   0.0000000000000000
  0.7843840873894279  -0.0271778197795966   0.0000000000000000
  0.9824126513500548   0.0024873693265746   0.0000000000000000
  0.0991843265815398  -0.0468392532814141   0.0000000000000000
  0.0164236197329729   0.0216216836667636   0.0000000000000000
  0.7461418339277840  -0.0313078737465108   0.0000000000000000
  0.9793229393907722   0.0029189889597428   0.0000000000000000
  0.1130825286139299  -0.0490420520078216   0.0000000000000000
  0.7058944105034720  -0.0354399888107516   0.0000000000000000
  0.1277704618123611  -0.0510562827506626   0.0000000000000000
  0.1762568929815641  -0.0559042078350805   0.0000000000000000
  0.0194159739879911   0.0233724623981675   0.0000000000000000
  0.6639684116827792  -0.0395008026994765   0.0000000000000000
  0.1937838883744062  -0.0571083155282771   0.0000000000000000
  0.9759912934368556   0.0033826575228533   0.0000000000000000
  0.2119350336566717  -0.0581032139582273   0.0000000000000000
  0.1432165586985055  -0.0528747491799113   0.0000000000000000
  0.1593891568184451  -0.0544918670991958   0.0000000000000000
  0.0226532097601106   0.0250954139222151   0.0000000000000000
  0.6207078411914361  -0.0434191082996254   0.0000000000000000
  0.5764634620046084  -0.0471137377839725   0.0000000000000000
  0.9724158415910057   0.0038783673250912   0.0000000000000000
  0.2306739249637577  -0.0588890260835713   0.0000000000000000
  0.0261336289695199   0.0267893547234291   0.0000000000000000
  0.5315950381341085  -0.0505057454921963   0.0000000000000000
  0.4864703588817339  -0.0535094604401647   0.0000000000000000
  0.4414549182767121  -0.0560390634426787   0.0000000000000000
  0.9685983416513994   0.0044053178288238   0.0000000000000000
  0.2697570606452168  -0.0598365819607799   0.0000000000000000
  0.3969170552729402  -0.0580119076690758   0.0000000000000000
  0.0298553974799863   0.0284531857194991   0.0000000000000000
  0.9645418978552561   0.0049624144199126   0.0000000000000000
  0.3107174127482247  -0.0599745523566999   0.0000000000000000
  0.3532197168655907  -0.0593474025151865   0.0000000000000000
  0.9602493272443249   0.0055486932681955   0.0000000000000000
  0.0338165335406938   0.0300858994339835   0.0000000000000000
  0.0380150454409591   0.0316864823247920   0.0000000000000000
  0.9557225431564565   0.0061636004358678   0.0000000000000000
  0.0424489136491938   0.0332538049970267   0.0000000000000000
  0.0471161015618897   0.0347866669642923   0.0000000000000000
  0.9509632887889385   0.0068066585927330   0.0000000000000000
  0.9459737541185675   0.0074771441085412   0.0000000000000000
  0.0520144617255517   0.0362838733443521   0.0000000000000000
  0.9353156990700551   0.0088958033238094   0.0000000000000000
  0.0624935317401540   0.0391666944281135   0.0000000000000000
  0.0738633102849253   0.0418930490455120   0.0000000000000000
  0.9237713694002159   0.0104115616199952   0.0000000000000000
  0.0861021343485112   0.0444536401350998   0.0000000000000000
  0.9113626006299211   0.0120184567085017   0.0000000000000000
  0.0991843220904188   0.0468392525175462   0.0000000000000000
  0.8981160438094651   0.0137076731266115   0.0000000000000000
  0.1130825239435962   0.0490420513187447   0.0000000000000000
  0.8840586036192291   0.0154712343488011   0.0000000000000000
  0.1277704569818227   0.0510562821360933   0.0000000000000000
  0.8692172405930260   0.0173025513845012   0.0000000000000000
  0.1432165537277111   0.0528747486397878   0.0000000000000000
  0.8536242574066383   0.0191927758449732   0.0000000000000000
  0.1593891517258480   0.0544918666322352   0.0000000000000000
  0.8373107708732270   0.0211334928345504   0.0000000000000000
  0.1762568877862003   0.0559042074398506   0.0000000000000000
  0.8203090254010921   0.0231167394087162   0.0000000000000000
  0.1937838830953411   0.0571083152030304   0.0000000000000000
  0.2119350283118140   0.0581032137003017   0.0000000000000000
  0.8026551790260408   0.0251343402747870   0.0000000000000000
  0.2306739195716207   0.0588890258904683   0.0000000000000000
  0.7843840851007032   0.0271778200327233   0.0000000000000000
  0.2697570552113356   0.0598365818878674   0.0000000000000000
  0.7461418312636445   0.0313078740273454   0.0000000000000000
  0.3107174073396524   0.0599745523895525   0.0000000000000000
  0.3532197115457904   0.0593474026374948   0.0000000000000000
  0.7058944074605978   0.0354399891145804   0.0000000000000000
  0.6639684082655058   0.0395008030201497   0.0000000000000000
  0.3969170500997217   0.0580119078642495   0.0000000000000000
  0.6207078374111498   0.0434191086291270   0.0000000000000000
  0.5764634578798972   0.0471137381129498   0.0000000000000000
  0.5315950336908907   0.0505057458089039   0.0000000000000000
  0.4864703541532008   0.0535094607315534   0.0000000000000000
  0.4414549133024901   0.0560390636939180   0.0000000000000000
  0.9901595609719056  -0.0023783411927147   0.0000000000000000
  0.0326649145266362  -0.0334200843455863   0.0000000000000000
  0.9878329678703356  -0.0027145673674890   0.0000000000000000
  0.0733998606732272  -0.0440344159407381   0.0000000000000000
  0.9922372924577029  -0.0020726951087579   0.0000000000000000
  0.8846838814295012  -0.0208009306521702   0.0000000000000000
  0.9852539181750185  -0.0030832573491977   0.0000000000000000
  0.8205556230767344  -0.0253024477924150   0.0000000000000000
  0.9824277530968584  -0.0034836508822686   0.0000000000000000
 -0.0022154120548041  -0.0049277430541563   0.0000000000000000
[...]
POINT_DATA 4142
SCALARS continuity float
LOOKUP_TABLE default
0.000682314045437153
0.001106636831335044
0.00020771170342833096
0.0014269905782172438
0.0016863343622439185
-0.0006436206539055637
0.0019086239803627028
0.002083083755190323
-0.002228563952627593
0.002217099834178769
0.0012318472111605666
0.0023566381073104764
0.0034286282712702376
0.002455715706641814
0.0025685001898888313
0.00016271099565482472
0.002666657410372156
-0.0009565218240256302
0.006925800414294104
0.0027464314496334834
0.0077510334294602495
-0.0018398034402116006
0.006009008997473607
0.0028928467697452768
0.0050170758764470896
0.007883628452477939
0.0017853390650403743
0.0030218937564151505
0.003989230474242194
0.002971955178835101
0.008171909482104308
0.0032771692968895086
0.00198537916598469
0.0002232290066358876
0.007712822338727202
0.003965667206856576
0.0035664979503524474
0.0010438139981669542
0.0023860772568845643
0.006836645843303562
0.00011429176098183974
0.0006516969933846989
-0.0007924723235556225
0.0039479947229034
-0.0006179900636545637
0.00553248175069317
-0.00023500804695610682
-0.0016860280222481207
0.0047115208742137295
0.004386243921931444
0.005149268064348391
-0.0027874612724085803
-0.0010661570615887002
0.0014305869581086729
-0.010878246987719735
-0.007310909780193119
-0.007634322325576623
0.0026083809222018713
-0.011475891475068707
-0.008448069857006087
-0.007170873579886503
0.005407704341213951
-0.0038434235130440034
-0.001466235132529809
-0.006437838094635574
0.005853846287834881
-0.0045116760350016666
0.006007989603792821
-0.0017629571837356926
-0.005060295316365259
0.006632373426676619
-0.00199180674777438
-0.00558822231337017
-0.005614945386060555
0.007050460891315377
-0.002174508315975063
-0.00604090094500141
0.006989043612787672
-0.006333866211786345
-0.006366150838832116
-0.0047057120136854095
0.006463735019943961
-0.006198500789859712
-0.0023219403941949694
-0.005922485917694004
-0.006462258565252012
-0.006455089418533347
-0.0037429497834805935
0.005563990043195936
0.004284376070192566
-0.002459538133989375
-0.005773817314234153
-0.0027742027954278147
0.0027688948094642843
0.0013686383597128178
0.0003739708691905013
-0.0025578777978098183
-0.00442778405434258
-0.0002587651674835576
-0.0018243766167763537
-0.002659589115593074
-0.002544985183770562
-0.00104128823300585
-0.0027332936247717802
-0.0009099510115177004
7.9192877034296e-06
-0.002845206990961472
0.0008980254445954027
0.001757765979282342
-0.002961310519372489
-0.00306053948276497
0.0029004041416866716
-0.003225154398841024
0.0038861918814698175
0.004586567323341326
-0.0034379751396701667
0.005140784002961179
-0.0037235684443408753
0.005679304379596574
-0.004176387457881667
0.006145037650761871
-0.004493884707826595
0.006452376104149713
-0.004956433867791358
0.006594066418173859
-0.005241978413064339
0.0065964011022051254
-0.005687419842649075
0.006514164632956062
-0.005928776278608498
0.006340355857299352
0.006032310241594916
-0.00625157585248871
0.005874939848462801
-0.006716353995027062
0.004465779195305025
-0.007087138620365825
0.0026065354152135824
0.0010452351564325566
-0.007263565948433405
-0.006698165593408212
0.00014676926715763883
-0.00585041677816332
-0.004612917395781853
-0.0031199382190280336
-0.0016939711309244129
-0.000613769757182667
0.0007367546784443391
9.186726567805336e-05
0.0011798868648742538
-0.003972359646735595
0.00040192647192413057
0.004826385943861182
0.0014819257367308506
0.005947574014776049
0.001735829554437779
0.0012705965428510477
-0.0005393046675805912
-0.0036130779706409566
0.0019531973202283597
-0.00020964869997941877
0.002123837477045068
-0.0015832773707712211
-0.0010417292246524962
0.0031854744291104032
0.0022541997083191834
-0.0034396560522623764
-0.00119920345751933
0.005144905471382208
0.0023925497633071535
0.005499135754744195
-0.008473804889531767
-0.00041698305078426487
0.0024891152531661053
-0.003996915162252056
0.0026015445753135064
-0.0016498369873439425
-0.0015697690022307075
0.0014995797991066264
0.0005168631601461249
-0.0001800624553926073
9.608547338435737e-06
0.00024125637871196375
-0.0005957069872404384
0.0026983910037529975
-0.0054002503241252
0.007448927014608417
0.00041065864650236054
0.004350812460586791
-0.00706081386234614
0.0027812979237321427
-0.002423057859120553
0.004737179528231197
-0.0007369632323987281
0.000822055825210776
-0.0009572070229706213
0.0038839234516019603
-0.004472761378798679
0.002917240005307521
0.0021484072360971863
0.003329931540005974
-0.004201528358738175
0.004690803292362842
0.004168521778126697
0.000523950350193459
-0.0036392849453387045
0.0030536761067824106
-0.0001260547275410866
0.002693261589963969
0.00021085478051495704
0.0020225166440225495
-0.0010509776363299458
0.0047182774630772
-0.0012178654079500984
0.0033070976812852064
0.002490778602329243
0.0013242693897652072
-0.0023702844503657207
0.00012674498256101698
0.002683118383047091
0.00442991981841784
0.005240011412947435
0.002447854587317762
0.002698807501030482
0.00359631955961764
0.004477176923628114
0.0006220674171752475
-4.599856620717132e-05
0.001516361666782865
0.004800913442202506
0.003975987577069657
0.002340725604041911
-0.0001241935444003663
-0.0016100751569107234
0.0005482389531808606
-0.0016900613488691019
-0.0008938868028155953
4.911351672917739e-05
0.00397786992709715
-0.0012175566685615723
-0.0008100424027968774
0.0034432318315321944
0.0033051848835151582
0.004926136955551137
-0.00021464192315803033
-0.0007005492986008555
-0.0017591418553684725
-0.00018359999637435656
0.004742387606282366
0.004040050963331642
0.004416940052461888
0.004603790607123405
0.005181867999349969
-0.0007695057213924913
-0.002558521122448376
0.004394966627680059
-0.0011192492774168524
0.0005914558056891755
0.0004461731642447448
0.005364351883754915
-0.0046040314994848135
-5.000727165985387e-05
-0.0042492678130574115
0.0019496923348785507
-0.004353859211179174
0.0040796399593915605
0.0002952682806250567
-0.0022837148008116866
-0.00784045275084229
0.001652105589124051
-0.005449914795634593
-0.00185684242380336
-0.004239095760389592
0.0006414565110217736
0.005440657636236087
-0.001417978719249224
-0.0036499631074821933
0.0036604101354706735
-0.001538785777803492
-0.0035142387192311103
-0.003931422001566221
0.0025949871372084056
0.005889213048402757
-3.0648737752364145e-05
-0.0042274816641495365
0.004472211101096517
0.006057032740072721
0.000442581682518973
-0.0018171248101863783
-0.00019063007556977067
-0.0047404131324727955
-0.0027447980579455565
0.006654078746219046
0.001283538717394065
-0.0020408632430022155
-0.0020516541791409217
-0.005255428551284004
0.003372286366668503
-0.003561304874676606
-0.0032218534163040496
0.007093602515445492
0.004662711362818848
-0.0022190463719423776
-0.0014540835000223554
-0.005709761316893605
0.0019138772081488014
0.0070309182694317665
-0.0035341982569942008
-0.006015101605975723
0.0025246986767177497
-0.006101120154072095
0.005490978562918131
-0.003077642169433089
0.0031165443267140804
0.006506887326812517
-0.0007120620725904477
-0.005956301044639928
0.00215629712035216
-0.0023622839531278824
0.00318088068710273
-0.0057252676451663344
0.004552730733102013
-0.006159751728598942
-0.004948567377325619
-0.006169899428460835
0.003094392585961479
-0.0025047453357510793
-0.00020401568655179387
0.005611295797053394
0.00297692022644454
0.004335426512698877
-0.004192671585488102
-0.0024975407194336597
0.0036111537295656702
-0.005526725053415018
0.0012991779864618067
-0.0018660123613421244
-0.00037490943282460513
0.002827829502809939
-0.002890985541551449
0.0014362648432392317
0.004470585285157053
0.00045310922272322803
0.005182123524893731
-0.0025933580248288916
0.00283610163693643
-0.004262041349325799
0.005622852269154306
-0.00016291406465732957
0.0040645480121411165
-0.0012008343433887905
-0.0010074065987678263
-0.002694314423700185
0.0137822409190614
-0.002406241098906738
-0.0032368415502038042
-0.0009253330238936648
0.0027499530109621356
-0.002767385042867966
0.0052943137849929345
-0.0005175958129279313
0.0026477830215135877
0.00021333459360945047
-0.001731541266091685
-0.002878790723024114
0.0025322245966870505
0.0009729124161705136
0.0040208712705900405
0.001814905710235331
-0.01458015584299174
-0.002997749386628462
-0.0024461965240548736
-0.0030864047831329383
0.002432837477217341
0.002634761385583014
0.005920368897029359
-0.0032591040099598425
-0.00014619266701774145
0.0036766616898719255
0.006069779748529108
0.004285690317849952
0.0022914043596717476
-0.0034691466402845387
0.0020487203194851237
0.0048065009877201375
-0.0026162025674804678
-0.003754716865666401
-0.003604238969511869
0.005333678888795575
0.0021587598365596047
-0.0042076092040305504
0.007777466080609669
0.005803578955716456
0.001988666952553008
-0.004526199166285791
0.00623111539722773
0.00612357281757055
-0.00023894694461697188
-0.004989999667043765
0.0034406403660669927
0.006282258248135912
0.0017755083284537872
-0.005276278079157489
-0.001988910067693755
0.006304217171306202
0.0015309288143043266
-0.005723649759261742
-0.0037312904672549886
0.0062413383915888845
0.0002979266460689487
-0.005966778353739138
-0.00403314301874245
0.0060915574073781105
0.0012310190393494988
0.005829036116290551
-0.0008795032404885822
-0.006303921083942318
0.0008401493109281828
0.005622862167331501
0.006825879455579013
-0.006739822021572249
-0.0004962494866821154
0.004294957169434477
-0.0031449965404517144
-0.0071335659495425545
0.0016644288442097242
0.0024625327489809783
-0.002190537249943253
0.0009252314671307514
-1.6177529824243985e-05
-0.007306506304815631
-0.000556557136681755
-0.006744172743634149
-0.0017266634214982532
4.7357038393712364e-05
-0.004507998951016434
-0.005900457104767719
-0.0014689046006939627
-0.0046677242325823395
-0.0019998757620960468
-0.0031819891820696715
-0.0037066554480179054
-0.0017648726687899694
-0.0020124923487812264
-0.0006970690831508183
0.001290362302427989
0.006109516088381683
0.004757691659714392
-0.0018618713337045399
0.003791436232740744
-0.004471866557865464
0.0055805002475520565
0.006709774099988142
0.0020220662287738457
-0.0020770279191162757
0.0019622060757172916
-0.00498135877697044
0.003469367586768075
-0.0032171487148671047
-0.0027324040998982007
0.007141657531359144
-0.0006288443417852803
-0.002253513256144164
-0.002912326056380776
-0.005441850850691601
0.0005442552362987274
0.007078508869037123
-0.0016655182315679694
-0.00576066207568811
0.0035039679676904002
-0.005897978699743927
-0.003957639365300391
-0.00276334420564106
0.00356128609418099
0.006553136361212806
-0.0003654559273010854
-0.005762480742027401
0.0009917900193541506
-0.002397663514423515
0.0003776086288307245
-0.005535097150363921
0.0014396646716713117
-0.0059237104799472135
-0.0026693885971706016
-0.005951842273122062
0.0032468132259938025
-0.002249719175911824
-0.002640588753618666
0.005654596226275803
-0.0001732126529114199
0.00437589460661741
-0.0032047994047342356
-0.00253573406461739
0.0034061424331991753
-0.00536794524037222
-0.0023645257829745516
-0.0016811216357463727
0.001896964333726614
0.0028654905228948898
0.007019445706526188
0.0014742308369238531
0.003103828662760451
0.0004986953480518993
-0.003530072919828592
-0.0026341142306273665
0.002349671950126668
-0.0041313440259733315
0.005995073846006183
-0.00010712591783077512
-0.00016735887065471515
-0.0010913623109675057
-0.0014758444624186086
-0.002740822338578592
0.0032129520129811706
-0.0023109333663553257
0.002997827867411429
-0.0008520014892287745
0.0029589156079888354
-0.00281648623268125
-0.004116334585681081
-0.00047768205877330176
0.002794190823832078
0.00019657504675998734
-0.00018192451304879431
-0.002930474170890663
3.208968072578058e-05
0.000895404145246041
-0.00393945138854004
0.0017081261461678115
0.002869634713132866
-0.003051470406766596
0.001153601627935769
-0.0031449331303151614
0.0027637263374711073
0.002485973399358707
-0.0027602204655308915
-0.003321750208529401
0.0026447287284204783
0.0034982770982265416
0.005704591890061143
0.00405841069990813
-0.0006231532004745905
-0.00353392259609115
0.005834553439953727
0.0045609808577469855
0.0025447594233584656
-0.003817918408459558
-0.0017308065341849837
0.005077051910803265
-0.00026056446367591713
-0.00426944559020677
-0.0034412643729377166
0.005548472712278563
0.0024002041085640314
-0.00458504902805876
0.0060140855453385345
0.005880475856770324
-0.00027191301699058123
-0.005047204193983862
-0.0019472920591477633
0.0060554125273691315
0.00227048927142743
-0.00533375047398008
0.0043908422703043725
0.0060929754379784205
0.002104844509442201
-0.005780931555736379
-0.0021917111724966275
0.00604447153523469
0.0002260739956087686
-0.006023291059279603
0.0064083297766831014
0.005904305495229481
0.0018975270568736418
0.005643397425571297
0.006278032628105573
-0.006355463292852992
0.0016676012339173604
0.005468695552141072
0.0018540701178336254
-0.006794866422624658
0.0006644692061275745
0.004169125379461207
-0.003484579221810978
-0.007181181440304431
0.0013907147706379865
0.002371559537465727
-0.002470794089571155
0.0008555608530669275
0.0010540516677106935
-0.00735572174241729
0.00643379596599498
-0.006790834902327672
-0.0001780695867572228
-7.588041606458136e-06
0.003300643762196772
-0.005944654837781605
-8.430895352042742e-05
-0.004707720140527945
-0.002196234978391419
-0.0032192941665886692
-1.3936851038836611e-05
-0.0018035934162665883
-0.004453398216825108
-0.0007409801075732666
0.0001869001062068039
0.0037361800901778274
0.007250188046320994
-0.0035574172497501496
-0.002361211513017583
0.003479337457444076
-0.004961438749327877
-0.0005570926538880238
0.007180308736991584
-4.61558427257332e-05
-0.005290580728082693
0.00035608605786690217
-0.005496048040192802
0.0005253724184789445
-0.001579234012769794
-0.0024310913783902478
0.006647783503623015
0.003476780091425501
-0.005378923861263288
-0.0032632660152800714
-0.002502933705314516
0.0004036160725824398
-0.005173837613008967
-0.003296840252163794
-0.005475406541962562
0.0032725295650604647
-0.005528146592137443
-0.0023920031118936013
-0.0011435215330540688
0.0011388548677004182
0.005741467189275396
-0.003509643607142377
0.0044566933939443835
0.0017675575863078414
-0.002642435911253783
0.00665195821691045
-0.00504403050885454
-0.00010740300882644297
-0.0007213666088547921
-0.0018023901750460244
0.002945389852851948
0.002925727099547149
0.0015638120943116407
0.002836192240224311
0.0006067537055639418
0.003180538301637625
-0.002741656309452954
-0.0034580976650161474
-0.003867523236806148
0.0023804867718414777
3.396160953243191e-05
0.000905593268002852
-0.00029648328226294674
0.004702719485630566
-0.0028517790130175133
-0.003639155280703794
-0.002089483930782216
0.0030879668845375827
-0.0006725887793370678
0.0010724288104820047
-0.002929251390572303
0.002977290433229106
0.00013516487717427772
-0.0029154826706931985
0.0006271278432258603
0.002854011867396845
-0.0030469059815864835
0.0063965976314165835
0.0011528659489357408
-0.005187744315680077
0.0018506279066252684
0.006165774116147777
-0.003173474942580417
0.0027543224940643853
-0.0032676265631398304
-0.001375141891517742
0.002455717460589482
-0.0016275245696320232
-0.003449378227199662
-0.00034191677271355823
0.003349830871662096
-0.004281927258465918
0.003736463725824334
0.002605864063967569
-0.00366254542083896
0.006826910120554466
0.0041616640533469074
-0.0008134671370167419
-0.003945742424384894
-0.0022444987881739538
0.00463703430914885
0.0024795385359352453
-0.004395231139790044
0.004939927463756671
0.005094515098574707
0.0023167460604989493
-0.00470871759597513
-0.0023898255154982386
0.005432030640411576
0.0004941799859994844
-0.005170130154667183
0.007032017566613904
0.005624659826746221
0.0021117688400204
-0.005455884970799628
0.00659845553956743
0.005684843319107418
0.0018928931510168116
-0.005902942657174045
0.0017297917039611518
0.005656107752049137
0.0008505367116254061
-0.006144173368242101
-0.004031607215774204
0.005532292178943204
0.0016222563451286007
0.005294226328627559
0.007685384890945462
-0.006474936669498544
0.0013193100119459835
0.005155198924130196
0.006742855130083899
-0.006910892304447537
0.0008606910906886207
0.003915043931165899
0.0031651754025592066
-0.007288795435201259
-0.00011311506326827135
0.002161414412304035
-0.0024847187045776067
0.0006840745213786668
-0.0011115149344583116
-0.0074561389091837875
-0.004309996172895411
-0.006884398489039756
-0.0014165583362573415
-0.0001422417540702654
-0.003941470792276563
-0.006031488155240005
0.0010885629073181884
-0.004788642077008123
-0.0017813613701850078
-0.003299140797803081
-0.0034881018671155213
-0.0018906353658294985
0.007307931357537418
-0.0008464774898259823
0.003329092239548893
-0.002667257642905623
-0.002386593050534544
-0.0010932916186836728
-0.004043302377886461
-0.0023896308727522526
-0.0015844911927362872
0.004110436900509118
0.00742672409762714
-0.0029454372511591846
-0.0025557353777867203
0.003395109390770035
-0.004412913492230737
-0.000659882288093746
0.007340831429583399
-0.0004078893913706689
-0.0047048671387358255
0.0003392319057679626
-0.004926845042162919
0.00032105496828963064
-0.0009443114345683467
-0.002152715487115806
0.006791474854108859
0.003849238902950381
-0.004824555405993315
-0.0013632998340943829
-0.002699373048135889
-0.000865205057668608
-0.0046500236742620365
-0.003334691284020335
-0.004882364306348006
0.0032550274906250442
-0.004943840508222421
-0.0018842160046210429
-0.0003244897648908558
0.0010596427583625418
0.0058704755038739
-0.003442515290934599
0.0045754976577417564
0.0017596473577103497
-0.0028426647768391962
0.00735182537757745
-0.004552903218401442
-0.000822107820871474
0.00025457921889168717
-0.0019461884147988443
0.0030670665517029344
0.002918413510037183
0.001708132818719575
0.0026140711027607855
0.000798025953993816
0.0035436764959972905
-0.00294270961113211
-0.0030385060220758015
-0.0034483856684903967
0.0023996860870643135
0.0002906326479610249
-0.00012551435352575716
0.0007666707969278718
-0.00024084328249156597
-0.0030574859666066623
-0.003387386990559883
-0.0017113619797931975
0.0034501635748756714
-0.0003474392753234694
0.0009918073833808572
-0.003136401194132321
0.0033369847287132823
0.0012149667131127174
-0.003047501028100436
0.0016632241189978244
0.003208155893227627
-0.0032602700996890947
0.007160321929962851
0.00206857813439462
-0.0001218332920084149
0.00261149834416087
0.006632083942444024
-0.0033930577555471835
0.003110215534865558
0.0029385868006822245
-0.0011464364697998523
-0.0036753665024684295
0.0004345096596363648
0.0036067866013645986
-0.005102332098068617
0.003670576982459816
0.0029522878610417267
-0.003889662170670159
-0.0009040979029673197
0.0038882988576649587
0.0005052192035776966
-0.0041705069031934775
-0.002626500477977613
0.004219890627688177
0.0028210479612580763
-0.004616835967339114
0.005681721445817553
0.004587830733258619
0.002650442781620628
-0.004926607425890518
-0.0026121434816030456
0.004881855210031874
0.0010316617084531361
-0.005385521407697884
0.007672695815308768
0.005062693744588162
0.0024276888377054934
-0.005667954289579167
0.007045692349920914
0.005127412037242771
0.0022017471402012486
-0.00611240088615385
0.0015921975195571712
0.005110716852260317
0.001315777169467909
-0.006350269737901748
-0.004991020198030077
0.005000793361079911
0.0019437882864682546
0.004790152232957799
0.0017807106381003512
-0.006676366465936159
0.0016751852965629474
0.004682571233236922
0.0071667635393189
-0.007101592056920078
-0.0002829701915430384
0.003514465846657533
0.0029496515163061274
-0.007464533611732117
-0.0001404914348704749
0.0018024239735035562
-0.002860204280443078
0.0003766057702038005
-4.298755230168407e-06
-0.007616998914910139
-0.003713604316671957
-0.00702957764616621
5.868068023572609e-05
-0.00038604872953417705
-0.004830576132143543
-0.006161533130685317
-0.00037786004690787433
-0.004908200480651165
-0.0023795938537723655
-0.0034193652953459037
-0.0038464682136212717
-0.0020307055541589148
0.007695058556151966
-0.001029975350089993
0.003697260548002757
-0.0021273573621167236
-0.0026734000261087083
-0.000901104536651063
-0.003989584913703666