# vtk DataFile Version 1.0
GRUMMP topologically 2D mesh
ASCII

DATASET UNSTRUCTURED_GRID
POINTS 4142 float
  0.9902132100051211  -0.0013897599745845   0.0000000000000000
  0.9878682672001325  -0.0017209544766007   0.0000000000000000
  0.9922830260938109  -0.0010965337451688   0.0000000000000000
  0.9852627687065505  -0.0020876945602550   0.0000000000000000
  0.9824126515147726  -0.0024873693035198   0.0000000000000000
  0.9941016532545700  -0.0008382294190312   0.0000000000000000
  0.9793229395886266  -0.0029189889321549   0.0000000000000000
  0.9759912936709813  -0.0033826574903297   0.0000000000000000
  0.9957253756688895  -0.0006072067599891   0.0000000000000000
  0.9724158418644283  -0.0038783672872607   0.0000000000000000
  0.9972114818934485  -0.0003956828894990   0.0000000000000000
  0.9685983419668763  -0.0044053177853816   0.0000000000000000
  0.9986172604849257  -0.0001958749290171   0.0000000000000000
  0.9645418982154840  -0.0049624143705746   0.0000000000000000
  0.9602493276520160  -0.0055486932126648   0.0000000000000000
  1.0000000000000000   0.0000000000000000   0.0000000000000000
  0.9557225436143375  -0.0061636003738353   0.0000000000000000
  0.9986172604763917   0.0001958749302285   0.0000000000000000
  0.0136778115501445  -0.0198442283865115   0.0000000000000000
  0.9509632892996972  -0.0068066585239019   0.0000000000000000
  0.0111799405480040  -0.0180409152078963   0.0000000000000000
  0.9972114818757430   0.0003956828920181   0.0000000000000000
  0.0164236219435115  -0.0216216850259729   0.0000000000000000
  0.9459737546847580  -0.0074771440326796   0.0000000000000000
  0.0194159763686392  -0.0233724637256901   0.0000000000000000
  0.0089312659290954  -0.0162123970812813   0.0000000000000000
  0.9957253756403164   0.0006072067640564   0.0000000000000000
  0.9353156997544615  -0.0088958032333210   0.0000000000000000
  0.0226532123065557  -0.0250954152174871   0.0000000000000000
  0.0261336316774566  -0.0267893559859237   0.0000000000000000
  0.0068429846519911  -0.0142695304151425   0.0000000000000000
  0.9237713702124288  -0.0104115615140689   0.0000000000000000
  0.0298554003449755  -0.0284531869488138   0.0000000000000000
  0.9941016532123735   0.0008382294250309   0.0000000000000000
  0.0050308200222286  -0.0123013782195995   0.0000000000000000
  0.0012596550434314  -0.0062543845982477   0.0000000000000000
  0.9113626015789812  -0.0120184565864932   0.0000000000000000
  0.0338165365583016  -0.0300859006297539   0.0000000000000000
  0.0005600587198625  -0.0041872521188657   0.0000000000000000
  0.0034956879705714  -0.0103096477045821   0.0000000000000000
  0.0380150486067802  -0.0316864834866382   0.0000000000000000
  0.0001400674572995  -0.0020989425108620   0.0000000000000000
  0.0424489169588349  -0.0332538061244847   0.0000000000000000
  0.8981160449036193  -0.0137076729882106   0.0000000000000000
  0.9922830260341767   0.0010965337536290   0.0000000000000000
  0.0022384105171692  -0.0082946477552229   0.0000000000000000
  0.0000000000000000  -0.0000000005380880   0.0000000000000000
  0.0471161050109934  -0.0347866680569130   0.0000000000000000
  0.8692172420003259  -0.0173025512123363   0.0000000000000000
  0.8840586048664243  -0.0154712341935952   0.0000000000000000
  0.8536242589802903  -0.0191927756559575   0.0000000000000000
  0.0520144653095357  -0.0362838744017245   0.0000000000000000
  0.9902132099234322   0.0013897599861408   0.0000000000000000
  0.0001400673054027   0.0020989413744649   0.0000000000000000
  0.0005600583994229   0.0041872509286527   0.0000000000000000
  0.0089312642537700   0.0162123956290166   0.0000000000000000
  0.0068429832427153   0.0142695290019493   0.0000000000000000
  0.0022384098100130   0.0082946464730838   0.0000000000000000
  0.0034956870455263   0.0103096463775504   0.0000000000000000
  0.0050308188630767   0.0123013768482443   0.0000000000000000
  0.0111799386902237   0.0180409137864515   0.0000000000000000
  0.8373107726191357  -0.0211334926288444   0.0000000000000000
  0.0624935355792051  -0.0391666954139108   0.0000000000000000
  0.9878682670932252   0.0017209544916756   0.0000000000000000
  0.0136778095139640   0.0198442269960848   0.0000000000000000
  0.8203090273240524  -0.0231167391866414   0.0000000000000000
  0.0738633143603066  -0.0418930499584099   0.0000000000000000
  0.8026551811301268  -0.0251343400368426   0.0000000000000000
  0.9852627685719384   0.0020876945791685   0.0000000000000000
  0.0861021386417074  -0.0444536409739349   0.0000000000000000
  0.7843840873894279  -0.0271778197795966   0.0000000000000000
  0.9824126513500548   0.0024873693265746   0.0000000000000000
  0.0991843265815398  -0.0468392532814141   0.0000000000000000
  0.0164236197329729   0.0216216836667636   0.0000000000000000
  0.7461418339277840  -0.0313078737465108   0.0000000000000000
  0.9793229393907722   0.0029189889597428   0.0000000000000000
  0.1130825286139299  -0.0490420520078216   0.0000000000000000
  0.7058944105034720  -0.0354399888107516   0.0000000000000000
  0.1277704618123611  -0.0510562827506626   0.0000000000000000
  0.1762568929815641  -0.0559042078350805   0.0000000000000000
  0.0194159739879911   0.0233724623981675   0.0000000000000000
  0.6639684116827792  -0.0395008026994765   0.0000000000000000
  0.1937838883744062  -0.0571083155282771   0.0000000000000000
  0.9759912934368556   0.0033826575228533   0.0000000000000000
  0.2119350336566717  -0.0581032139582273   0.0000000000000000
  0.1432165586985055  -0.0528747491799113   0.0000000000000000
  0.1593891568184451  -0.0544918670991958   0.0000000000000000
  0.0226532097601106   0.0250954139222151   0.0000000000000000
  0.6207078411914361  -0.0434191082996254   0.0000000000000000
  0.5764634620046084  -0.0471137377839725   0.0000000000000000
  0.9724158415910057   0.0038783673250912   0.0000000000000000
  0.2306739249637577  -0.0588890260835713   0.0000000000000000
  0.0261336289695199   0.0267893547234291   0.0000000000000000
  0.5315950381341085  -0.0505057454921963   0.0000000000000000
  0.4864703588817339  -0.0535094604401647   0.0000000000000000
  0.4414549182767121  -0.0560390634426787   0.0000000000000000
  0.9685983416513994   0.0044053178288238   0.0000000000000000
  0.2697570606452168  -0.0598365819607799   0.0000000000000000
  0.3969170552729402  -0.0580119076690758   0.0000000000000000
  0.0298553974799863   0.0284531857194991   0.0000000000000000
  0.9645418978552561   0.0049624144199126   0.0000000000000000
  0.3107174127482247  -0.0599745523566999   0.0000000000000000
  0.3532197168655907  -0.0593474025151865   0.0000000000000000
  0.9602493272443249   0.0055486932681955   0.0000000000000000
  0.0338165335406938   0.0300858994339835   0.0000000000000000
  0.0380150454409591   0.0316864823247920   0.0000000000000000
  0.9557225431564565   0.0061636004358678   0.0000000000000000
  0.0424489136491938   0.0332538049970267   0.0000000000000000
  0.0471161015618897   0.0347866669642923   0.0000000000000000
  0.9509632887889385   0.0068066585927330   0.0000000000000000
  0.9459737541185675   0.0074771441085412   0.0000000000000000
  0.0520144617255517   0.0362838733443521   0.0000000000000000
  0.9353156990700551   0.0088958033238094   0.0000000000000000
  0.0624935317401540   0.0391666944281135   0.0000000000000000
  0.0738633102849253   0.0418930490455120   0.0000000000000000
  0.9237713694002159   0.0104115616199952   0.0000000000000000
  0.0861021343485112   0.0444536401350998   0.0000000000000000
  0.9113626006299211   0.0120184567085017   0.0000000000000000
  0.0991843220904188   0.0468392525175462   0.0000000000000000
  0.8981160438094651   0.0137076731266115   0.0000000000000000
  0.1130825239435962   0.0490420513187447   0.0000000000000000
  0.8840586036192291   0.0154712343488011   0.0000000000000000
  0.1277704569818227   0.0510562821360933   0.0000000000000000
  0.8692172405930260   0.0173025513845012   0.0000000000000000
  0.1432165537277111   0.0528747486397878   0.0000000000000000
  0.8536242574066383   0.0191927758449732   0.0000000000000000
  0.1593891517258480   0.0544918666322352   0.0000000000000000
  0.8373107708732270   0.0211334928345504   0.0000000000000000
  0.1762568877862003   0.0559042074398506   0.0000000000000000
  0.8203090254010921   0.0231167394087162   0.0000000000000000
  0.1937838830953411   0.0571083152030304   0.0000000000000000
  0.2119350283118140   0.0581032137003017   0.0000000000000000
  0.8026551790260408   0.0251343402747870   0.0000000000000000
  0.2306739195716207   0.0588890258904683   0.0000000000000000
  0.7843840851007032   0.0271778200327233   0.0000000000000000
  0.2697570552113356   0.0598365818878674   0.0000000000000000
  0.7461418312636445   0.0313078740273454   0.0000000000000000
  0.3107174073396524   0.0599745523895525   0.0000000000000000
  0.3532197115457904   0.0593474026374948   0.0000000000000000
  0.7058944074605978   0.0354399891145804   0.0000000000000000
  0.6639684082655058   0.0395008030201497   0.0000000000000000
  0.3969170500997217   0.0580119078642495   0.0000000000000000
  0.6207078374111498   0.0434191086291270   0.0000000000000000
  0.5764634578798972   0.0471137381129498   0.0000000000000000
  0.5315950336908907   0.0505057458089039   0.0000000000000000
  0.4864703541532008   0.0535094607315534   0.0000000000000000
  0.4414549133024901   0.0560390636939180   0.0000000000000000
  0.9901595609719056  -0.0023783411927147   0.0000000000000000
  0.0326649145266362  -0.0334200843455863   0.0000000000000000
  0.9878329678703356  -0.0027145673674890   0.0000000000000000
  0.0733998606732272  -0.0440344159407381   0.0000000000000000
  0.9922372924577029  -0.0020726951087579   0.0000000000000000
  0.8846838814295012  -0.0208009306521702   0.0000000000000000
  0.9852539181750185  -0.0030832573491977   0.0000000000000000
  0.8205556230767344  -0.0253024477924150   0.0000000000000000
  0.9824277530968584  -0.0034836508822686   0.0000000000000000
 -0.0022154120548041  -0.0049277430541563   0.0000000000000000
[...]
POINT_DATA 4142
SCALARS continuity float
LOOKUP_TABLE default
0.00046367380843523494
0.00031797856271280594
0.0007109129409438482
0.00025438286384323673
0.00025502592344134355
0.0010623956553812428
0.00030935776653718335
0.0004022745696523304
0.0020895382641448242
0.0005394963197879546
0.0005822647690566602
0.0006905514731963043
-0.00650597943053872
0.0008627695486255918
0.0010460868521295005
-0.003593031733566127
0.0012416843743519698
-0.01934766169810155
0.016557578242758216
0.0014509947434053212
0.019840894634644737
0.0006204901163396189
0.013486778430349188
0.0016688402548976178
0.010767977137204555
0.023767947170384947
-0.0005977483911158126
0.0020383212881374788
0.00844901092263792
0.006518135746470481
0.026947753985029115
0.0023751622898738616
0.004959122648410701
-0.00019889144540047584
0.02984629840336324
0.027195977470511737
0.0027926997543716286
0.003750855010219
0.020488017175078872
0.03134517826820863
0.002891685353025237
0.01125925725440165
0.0023422757572213195
0.003140521464832835
0.00014960581649205686
0.030705431902203494
-0.0004134806158419306
0.0021374012895051487
0.003855525680489011
0.0034554551372315725
0.004134213098582086
0.002024229350791964
0.0002790817891931401
-0.014871102766310814
-0.017524347487730598
-0.029274100620959188
-0.032429031033821026
-0.03935497430377356
-0.031654006558627885
-0.03382631547433799
-0.025380319003893457
0.004537837817834949
0.002346449244023111
0.0003544627907259111
-0.021792828017038433
0.004818099515470857
0.0024847713983301933
0.005281927556266052
0.00037052074635057536
0.003042303938166436
0.005625407842695146
0.0003156479761951291
0.003987423591915418
-0.018373130338586997
0.0063376187464551275
0.00022607524578998337
0.005152345311903801
0.007102222350731045
0.006365652450152884
0.00967374090436269
-0.015277076762266657
0.007878155445620066
0.010599764061438935
9.66932170605257e-05
0.011454343892240867
0.007547249880830774
0.008652126929362246
-0.012550857718052451
0.008576127222552523
0.009149873965599273
-4.74782593876354e-05
0.012793461319163818
-0.010220927863596534
0.009635083519300213
0.010166252377929383
0.010865075418853678
-0.0002207853537073544
0.013634556160860518
0.011725553144553471
-0.008269081578438994
-0.0004038784635980528
0.01351787369125577
0.012672587986631179
-0.0006080192477610641
-0.006667527493484894
-0.005425134439824722
-0.0007941730142831318
-0.004513066156709827
-0.0038503495916209535
-0.0010047641901140898
-0.001204912984045841
-0.0036584072621913175
-0.0015526300894691532
-0.003074916956643316
-0.0028658457450250097
-0.0019035455268855718
-0.0031022557344222526
-0.0022915057102452408
-0.0037521753423570524
-0.0026505459142946533
-0.004653017357456502
-0.003077816218554879
-0.005642974703876995
-0.0034619714244249157
-0.006640351139114507
-0.003912804652486084
-0.0075990358413200254
-0.004319742071853881
-0.00853307203652774
-0.004772348315249301
-0.009435207420620435
-0.010170392561173922
-0.005306362300561991
-0.011433402238098415
-0.005721375115041946
-0.011953487306630447
-0.00677503675430032
-0.012315899466819987
-0.01221263289302489
-0.0076693242315345545
-0.008803635697037326
-0.012174811854485889
-0.009848658238514538
-0.010779898513086363
-0.011486084862896177
-0.011926678577954413
-0.012129128499566415
0.00043657647386138984
0.0030793449863946777
0.0002929638127357292
0.0025222002701928213
0.0006297409650782256
0.003743520482049864
0.0002384014877611013
0.0048389612459150905
0.0002449295025347858
0.014732853610224769
0.0008929166837867236
-0.020368184565913067
0.0003021007424432543
-0.0014693678906578102
0.0003994874424082742
0.00032527665193259135
0.001770516405132715
0.02422756205702152
0.0005349515056763054
0.0025354962974588825
0.0017675423598907665
0.004135920204729497
0.00068429474283567
0.004561864736048543
0.007263737693496953
0.0024041145803749687
0.000854181430623367
-0.023406511609197697
0.0010375114101235424
-0.0002735665706858559
0.0006376690857085342
-0.0019340641866516545
-0.0013298549803929646
-0.0001247890081192521
0.0004704984733954517
-0.00030393942588867
-7.158587678374941e-06
0.0012329845033266413
-0.029454157203297516
0.0018422792508736286
0.007483017148169349
0.019625964619109593
-0.027688623601104533
0.001438937397630845
0.00022257793018592403
0.02317522125931289
-0.02929981945131509
-0.0005856241099604434
0.0019720239085700866
0.016210746060713994
-0.028802692677398326
0.0016607507210133557
0.014366865668646691
0.01309370398713075
-0.026407481762227705
0.026937540943095306
0.0032724217630911508
0.0005631577766906064
-0.018798164772749457
0.0020252938621458964
-0.0016153781599896916
0.010377094905217071
-0.01246059532240264
0.008080583029781143
6.534386242059323e-05
0.029987830279512354
0.0002583708657717778
0.002360353828928846
0.01809258211885934
0.006194536528191944
0.002297403492609215
-0.00012235452588057558
0.023223502248234922
0.03222006621018143
0.0041581085424987575
0.026886848159422657
0.02035543174459706
0.0027797193733932733
0.003480563871929864
0.004702505943815079
-0.0014717523112675133
0.019799748910238477
0.003881098213159522
0.03281023304868716
0.016094936285412594
0.0036059890723453164
0.002604261213282136
0.010430862695929655
0.0019525015570757474
0.00286917903369076
-0.0012573171659979825
0.0031275587719747744
-0.00011963012436066636
0.0002829129301127777
0.02603240700376081
0.031184880638225023
0.003972844390410702
-0.0006019298046692652
0.00011447189857234654
0.0025404525925346874
-0.0015946664036145819
0.0038413037120787084
0.0031720393727768742
0.003437623825405264
0.0035754456095634206
0.004120291099399167
0.0028806680459084076
0.002202076863121957
0.0034472611481267514
0.0003207362196912947
0.00862367956206886
-0.01354680766829749
0.00424572533069427
-0.02044560138020794
0.003554494128584119
-0.030575839987205432
0.01282406969689336
-0.03340995863557566
0.02728718577916033
-0.034661569691053114
0.001792515789586069
-0.03207340230314817
0.016564345740694198
-0.0341112888203951
7.65661583626462e-05
-0.026929268569946985
0.004509056948722961
0.00452479654340143
0.00015319264496664497
0.002426290419396045
0.0028271267824729962
0.000404773395037187
-0.0014474574925922958
-0.023268071946390516
0.02251209404495776
0.004803579874904159
-0.011232185904146697
0.002442754292703326
0.02673233939467012
0.005254531641463125
0.00630679946285836
0.0004090007140946683
-0.00011986289243293158
0.002919627452226727
-0.017490855476850947
0.005624094939077752
0.0057918490330999385
0.0003510701579907761
-0.0005104443890593259
0.003815536069797764
0.0024139231512460098
-0.019672521839927234
-0.023532780259095932
0.006314080054337981
0.024891523190448347
0.00025966384492641153
0.0003881303075037135
0.004955369031192385
0.007383987905639312
0.007078528591236924
-0.02586849161582524
0.006161216154582952
0.009282688996546223
0.009487035671960851
0.004399296539300424
-0.016346376448698605
0.0020841157575734615
0.007852455177879934
-0.026174692458193018
0.010428456019650235
-0.0008388393480891506
0.0001288188287998854
0.021240670820215274
0.011324580844868273
0.02242527996013008
0.007343079088566295
-0.025746047006672178
0.00845457719780341
0.011477553151479762
-0.013378103940207997
-0.0013306239971213752
0.008545749020966355
0.0017214329157850402
0.009114152945945793
-0.026746550226661007
-1.6506331258100483e-05
0.01396721144630586
0.01259784384095694
0.012776408949507335
-0.010815732006838974
-0.0002689767135419828
0.009591244439053266
-0.020625768744858528
0.010115618038641905
0.019461769597056346
0.010805254801985166
0.004015425687368165
-0.0001898877337177923
0.001504924282170176
0.0135206582132165
0.004647659083062925
0.011652710801147225
0.01666887534894818
-0.008646953656186208
0.00093886614600508
-0.00037275974478543554
-0.003966777354654086
0.013418092274808703
0.0022702630042547973
0.012586970561861784
0.0012985669826848427
-0.0005760633448048325
0.00415685788096031
-0.006864859574652171
0.0011051906540789074
-0.005479622187677581
0.0002009811931265617
-0.000761206820362256
0.0009262080451599567
-0.0044642292994701285
0.0031199349042264316
-0.003826403323690675
0.009995132966406646
-0.0009669886833499691
-0.017654789184021868
-0.001177555697852539
0.000758189353232271
-0.003242333174143821
0.004655274634200918
-0.0015109493437580725
0.001084020934865833
-0.0028135574076148997
0.004921423576383083
-0.002508212492904555
0.0006144348658962792
-0.0018649007195109897
0.01757127484121948
-0.0027190695627566297
0.00246166891517894
-0.002252254593788321
0.0023272413627038195
-0.0033640364456119696
0.00048097369315395924
-0.002611369262830605
0.0063609516308287765
-0.004274319122337657
0.00038849076917059263
-0.0030379591851295924
0.005372758157732175
-0.005281162327860117
0.0010022405129441185
-0.0034227947088776426
0.020550943227768164
-0.00630233926026013
0.00033378931164220144
-0.0038739076334193675
0.0002038712999875326
-0.007284618357406141
0.0003266567529526753
-0.004280345204488087
-0.0015394966854569538
-0.008241297484829695
0.0007901146117666187
-0.004731492374682184
0.0028594401020777213
-0.00916951495552305
0.0003833590351626809
-0.009960454445056593
-0.00025374313629374177
-0.0052465208427681055
0.0005138123362733252
-0.011148668150107283
0.0057325436269594675
-0.005701963818441544
-0.0010668704547302525
-0.011771979452733821
-0.0021399670348708883
-0.006722121740109282
-0.0024654333196343224
-0.01215439284361592
0.00014351354538122838
-0.012074919874565505
-0.0017429480719176296
-0.007619509140006221
0.0018298990068914972
-0.008751105541970514
-0.0002841787825209741
-0.012057177862418108
0.003759557082749282
-0.00978916495425564
-0.00029243262038983447
-0.010714620363125166
-0.00019159135958214915
-0.011410227046025965
0.0020103643183207007
-0.01183965256602889
-0.014756236116207718
-0.012029255421657828
-0.0023377800048746946
0.005293369311100927
0.003732025232289509
0.0003335653924310258
0.0029327951652779495
0.0029724061539776504
0.004402525044684045
0.005656130335767534
0.020100408231138327
0.00027902943902304554
0.011060501954047865
0.0038320563928564313
0.023509199555449542
-0.01737879576473598
0.00023364735650091605
0.006350254579725521
-0.00012871846319085044
0.00019181160461367302
-0.001470073825551883
0.004943385389166563
0.004054420085950333
0.007111094229979233
6.166427080445011e-07
0.006131537779128456
0.0025250279421103685
0.009452690341957806
-0.0022031148492345567
-0.014604381270264212
0.02160131867188273
0.007881403051798174
-0.010010820774509011
0.01039112106674682
0.005330730928368022
6.519872939053249e-05
0.005430324864800947
0.011279034304113237
0.006904368994010635
0.007308687000709335
-0.01555505076517253
0.0084197646237742
0.0022033232991740355
-0.012103564455364521
-0.0007625929804263647
0.008573352339526365
-0.00016339208953453527
0.009138580561332026
-0.021117937648348736
-7.476623844542101e-05
0.019104823990323504
0.01257392907127354
-0.001107247837343162
-0.009915995763155015
0.008809012141971183
0.009615824776927115
0.005873901790049138
0.010139745363817591
0.0018488669044037043
0.01083026936296355
-0.0231768958145783
-0.0002448718651734254
0.01104532335593516
0.013521800077940937
0.004793891800268575
0.011683114562173873
-0.0006235749795490652
-0.008041697715632156
-0.022830245547875806
-0.00042197466154495194
0.016226785850448306
0.013447133907480929
0.018874694902817932
0.012622030675007494
0.0016360525207004815
-0.0006214806998502265
-0.023380065775080165
-0.006467089384878168
0.013553838602306661
-0.005224754785946402
-0.001162891907149887
-0.0008044371177280015
0.000548775249712009
-0.0042952318479713095
-0.02401676383574185
-0.0037274444934479053
0.0014354322970514023
-0.0010118283538697154
0.011253045504692425
-0.0012191141762868981
0.001246464599072323
-0.0031387367482468152
-0.01854213765566006
-0.001552206787676516
0.0010742513565570994
-0.0027932214334510973
0.00442331864212825
-0.0024708467369243367
0.0027044748712847437
-0.001899522371451997
0.004799099199234283
-0.0026622315345338
0.0009116483661492474
-0.0022864275952909656
-0.0005275266760488642
-0.0032839701109106433
0.001506676417549407
-0.0026413258161015443
0.0009742685136331097
-0.004179350886368669
0.0007717113687867837
-0.003065798334170688
0.004737851859077263
-0.005181847846076827
0.001593666132178764
-0.0034471666829420074
2.2112841568406885e-05
-0.006204918350056678
0.0006423152216388828
-0.003895125900907631
0.0034149744231174433
-0.00719240303761481
0.0005505067136533096
-0.004300377601987499
-0.015829327335867567
-0.008153135484839683
0.0010313608456650118
-0.004749746558439226
0.005035615658399287
-0.009082873507783907
0.0004942158300270372
-0.009868020051906495
0.005070725784427995
-0.005268991864533604
0.0004823453524530523
-0.011077889913523967
0.015566954082925273
-0.005717962390877349
0.0008365424031474421
-0.011727568075211291
0.0012302186908337849
-0.006742208331906771
0.0005262714366249362
-0.012135975198066924
-0.003797878439742341
-0.012061842207787173
0.0006344808555000102
-0.007633537731469699
0.005516823822434187
-0.008761498950770816
-0.0014198746367731774
-0.01204618218187299
0.018229453732156738
-0.009797397155093443
-0.0011556183037651465
-0.010719704961913245
1.6960310404624805e-05
-0.011412530880273837
-0.0005324217551711961
-0.011837108689631356
-0.002324290536952532
-0.012021017709324426
-0.00010042378956740184
0.0027205326790230044
0.006427539977173168
-0.002567078168157704
5.9705021844403116e-05
0.01874756360826705
0.004886295306601241
-0.008825382255034292
0.0071826889428473735
0.0030165659846853833
0.0060815645779097125
0.004704600982251653
0.009417428854748309
0.004534639695441336
-0.01209722732029996
-0.013757168687711683
0.007947896602535273
0.002412466876523372
0.010355086997862547
-0.001192719286029434
-6.310123108345824e-05
-0.0007014190771367641
0.011251399098249057
-0.018607292582031372
0.007264016308144332
0.016347784829160567
0.00838197272054541
-0.0018109660186643509
-0.009739170550999838
0.006373318146051063
0.008635375794892153
-0.020485050129551933
0.009198210020956435
0.008543647493056802
-0.0001976874729260255
0.005336420706295886
0.012565130236684452
-0.000675676656796059
-0.007735566734672277
-0.019906010503271655
0.009673915348789166
0.013606914185512435
0.010200343098578094
0.016864069487789284
0.010897485973144007
0.0018613051624825582
-0.00036189934773229706
-0.020976361734079452
0.013568373319208698
0.01099276221984357
0.011762276608104909
0.006831096204429642
-0.006076345437310976
-0.0020512781679310533
-0.0005327940395068955
-0.021372631943479572
0.013529925191469679
0.001668565519549689
0.012713016544352394
0.009898303689622056
-0.0007283694331286149
0.0014870110870442502
-0.0047425045173483055
-0.016303225370678107
-0.00374477122306737
0.0013219147744359318
-0.0009068520057761868
0.004981259265429463
-0.0030412131113467748
0.004355812500890552
-0.002722719472691748
0.005044167569798677
-0.001110308804919261
0.0011652227520660991
-0.0013106576454114404
-0.0003702755161644228
-0.002287595865416611
-0.0012909140730286625
-0.0016361097098756487
0.0016477226115189396
-0.0022143579419552934
-0.0009268499712872654
-0.001996252990137631
0.0010290340544589582
-0.001978783325759607
0.005408901305041304
-0.002296070362219187
0.0018851534510273967
-0.0023581347996807023
-0.00019920207601202048
-0.002986967949202499
0.0009002905562658052
-0.0027073095347146694
0.0038574890136004614
-0.003927631720831483
0.0008047376797615159
-0.003127327494616518
-0.013903816173511224
-0.004965268543843328
0.0011827437530472944
-0.003502895790529834
0.005558640120279232
-0.006017576166847677
0.0007401209935016677
-0.003947260789576643
0.0053049583570464265
-0.007030878072003806
0.0007125475522350851
-0.004349130355355834
0.013785065319563474
-0.00800750823089985
0.0010317416754225214
-0.004795844487179542
-0.0006849060217774996
-0.008947804486571398
0.0007440551388428452
-0.009746094340627157
0.006072115362352449
-0.005313282592283016
0.0008264885358162258
-0.010980066660557031
0.005751852840972132
-0.005758542184721624
-0.0014383063713307297
-0.011679797994535307
0.016295688556774556
-0.006783550286435149
-0.0006408854897054215
-0.012119968644373858
-0.00021810172972742498
-0.012053330956539559
0.0004990052736399869
-0.007668655388028931
-0.002438559092588469
-0.008791179554030108
0.0012495077269359639
-0.012039181189166295
0.00020590874123954813
-0.009821867879279338
-0.0016011055940366318
-0.010739051670176816
-0.0005855739092130016
-0.011425609720466707
-0.0014695392769808542
-0.011842860617352537
0.006104416679571937
-0.012019318347685966
0.002065193207109813
-0.0026129686563777007
-5.425653739900916e-05
0.00037296722265584855
0.0031189771984923456
-0.0004334697898528906
-0.013149859209131266
0.0030305189603769614
0.006561445210989054
-0.0030949338428008888
-0.00014241316663601397
0.016543785017390386
0.004403699566230757
-0.007699520772539137
0.007312510572086308
0.0015605691913984012
0.005715807467951495
0.0041078064091147545
0.009259226678349188
0.0030310185484579153
-0.010621498248817916
-0.012108354805507489
0.008071014075640221
0.0027359219821093367
0.010233869078196876
-0.004892297786569355
-0.0002652972028104415
-0.0005758966174474913
0.011172941666704208
-0.016190114697479645
0.006987974791005916
0.014275757125760307
0.00817420071389695
-0.002421879254104215
-0.008320887084450614
0.004808489286386861
0.008751196352484242
-0.01799322703298403
0.009310969071112719
0.006876746193141506
-0.00039581131216560785
0.005951510248721823
0.012525452607881996
-0.0006837062151551904
-0.0062834736831546365
-0.017291034976880334
0.00978518024561494
0.01171053580919962
0.01031754917237713
0.015152127300132217
0.011030186346493075
0.0022122680687090847
-0.0005559782570481552
-0.01864777498055477
0.013633289175136964
0.009221734776037816
0.011915127138144585
-0.0010462165073149472
-0.0045403220897891235
-0.0007172233357671085
-0.0007179013320669036
-0.018915144301332863
0.0136663746005657
0.002027787128719541
0.012876740800766751
0.008714833288374569
-0.0009086471820623301
0.001854578930828029
-0.0031201973998379604
-0.013991899262163918
-0.0020421625563893015
0.0016972288291283474
-0.001077314009365252
0.005620928973028825
-0.0012812109498778587
0.0019920826811133875
-0.0009690225846434398
0.005418857466666279
-0.0012747317516451622
0.0015428901909651871
-0.0005830302109126151
-0.0019877114815925845
-0.0017845470978390782
0.0015224386108524419
-0.0007083030642701649
-0.0020541684435018957
-0.0006512749378075112
0.0014110240775303722
-0.0021156787801998285
-0.004373624630477575
-0.0011803921269959753
0.0015726803783027011
-0.0024866743051645346
-0.00045990893285064116
-0.002080569667120888
0.001275897951886096
-0.002827624298738835
0.0044586671276661835
-0.0031957414658627032
0.0011636296826489192
-0.0032382848921876954
-0.011734444248802938
-0.004377867734670802
0.0012897052305082648
-0.0036072703633131353
0.0061385651848732455
-0.005548186506765995
0.0010762716784135208
-0.004044019906814595
0.005669191459625371
-0.006655553749453775
0.0010185334467055945
-0.004440927868755986
0.012208545661540773
-0.00770387586638993
0.001192397434478227
-0.00488299899189979
-0.0020935207550463884
-0.008697473323281836
0.001014323411952268
-0.009544839035249107
0.011446816903664421
-0.0053965203634683484
0.0010634295865358375
-0.010822359325919581
0.006102493423748954
-0.0058408640090814225
-0.0009220623697131879
-0.011612785668620885
0.014706317805954827
-0.006864010555320828
-0.0003500873437346557
-0.012099626766500183
-0.000500000045618876
-0.012051418492842773
0.00038182437944379627
-0.007741113074158488
-0.0027041997826798736
-0.00885601118984842
0.0009449926458480468
-0.012042381100415667
-0.001516065544318949
-0.009878788249512434
-0.0010976394381023151
-0.010786241438988362
-0.0008149530100593077
-0.011462007127523726
-0.0017118433468493296
-0.01186672516490268
0.006454131639598188
-0.012030372445312945
0.0024020258763059812
-0.003255039541148209
-0.00031050373854310363
-0.00046676035223750727
0.0014956286229537456
-0.0007315094815271213
-0.011581254822229981
0.003484666996141794
0.006788679664166096
0.005802428828153407
-0.00041345245240028105