# vtk DataFile Version 1.0
GRUMMP topologically 2D mesh
ASCII

DATASET UNSTRUCTURED_GRID
POINTS 4142 float
  0.9902132100051211  -0.0013897599745845   0.0000000000000000
  0.9878682672001325  -0.0017209544766007   0.0000000000000000
  0.9922830260938109  -0.0010965337451688   0.0000000000000000
  0.9852627687065505  -0.0020876945602550   0.0000000000000000
  0.9824126515147726  -0.0024873693035198   0.0000000000000000
  0.9941016532545700  -0.0008382294190312   0.0000000000000000
  0.9793229395886266  -0.0029189889321549   0.0000000000000000
  0.9759912936709813  -0.0033826574903297   0.0000000000000000
  0.9957253756688895  -0.0006072067599891   0.0000000000000000
  0.9724158418644283  -0.0038783672872607   0.0000000000000000
  0.9972114818934485  -0.0003956828894990   0.0000000000000000
  0.9685983419668763  -0.0044053177853816   0.0000000000000000
  0.9986172604849257  -0.0001958749290171   0.0000000000000000
  0.9645418982154840  -0.0049624143705746   0.0000000000000000
  0.9602493276520160  -0.0055486932126648   0.0000000000000000
  1.0000000000000000   0.0000000000000000   0.0000000000000000
  0.9557225436143375  -0.0061636003738353   0.0000000000000000
  0.9986172604763917   0.0001958749302285   0.0000000000000000
  0.0136778115501445  -0.0198442283865115   0.0000000000000000
  0.9509632892996972  -0.0068066585239019   0.0000000000000000
  0.0111799405480040  -0.0180409152078963   0.0000000000000000
  0.9972114818757430   0.0003956828920181   0.0000000000000000
  0.0164236219435115  -0.0216216850259729   0.0000000000000000
  0.9459737546847580  -0.0074771440326796   0.0000000000000000
  0.0194159763686392  -0.0233724637256901   0.0000000000000000
  0.0089312659290954  -0.0162123970812813   0.0000000000000000
  0.9957253756403164   0.0006072067640564   0.0000000000000000
  0.9353156997544615  -0.0088958032333210   0.0000000000000000
  0.0226532123065557  -0.0250954152174871   0.0000000000000000
  0.0261336316774566  -0.0267893559859237   0.0000000000000000
  0.0068429846519911  -0.0142695304151425   0.0000000000000000
  0.9237713702124288  -0.0104115615140689   0.0000000000000000
  0.0298554003449755  -0.0284531869488138   0.0000000000000000
  0.9941016532123735   0.0008382294250309   0.0000000000000000
  0.0050308200222286  -0.0123013782195995   0.0000000000000000
  0.0012596550434314  -0.0062543845982477   0.0000000000000000
  0.9113626015789812  -0.0120184565864932   0.0000000000000000
  0.0338165365583016  -0.0300859006297539   0.0000000000000000
  0.0005600587198625  -0.0041872521188657   0.0000000000000000
  0.0034956879705714  -0.0103096477045821   0.0000000000000000
  0.0380150486067802  -0.0316864834866382   0.0000000000000000
  0.0001400674572995  -0.0020989425108620   0.0000000000000000
  0.0424489169588349  -0.0332538061244847   0.0000000000000000
  0.8981160449036193  -0.0137076729882106   0.0000000000000000
  0.9922830260341767   0.0010965337536290   0.0000000000000000
  0.0022384105171692  -0.0082946477552229   0.0000000000000000
  0.0000000000000000  -0.0000000005380880   0.0000000000000000
  0.0471161050109934  -0.0347866680569130   0.0000000000000000
  0.8692172420003259  -0.0173025512123363   0.0000000000000000
  0.8840586048664243  -0.0154712341935952   0.0000000000000000
  0.8536242589802903  -0.0191927756559575   0.0000000000000000
  0.0520144653095357  -0.0362838744017245   0.0000000000000000
  0.9902132099234322   0.0013897599861408   0.0000000000000000
  0.0001400673054027   0.0020989413744649   0.0000000000000000
  0.0005600583994229   0.0041872509286527   0.0000000000000000
  0.0089312642537700   0.0162123956290166   0.0000000000000000
  0.0068429832427153   0.0142695290019493   0.0000000000000000
  0.0022384098100130   0.0082946464730838   0.0000000000000000
  0.0034956870455263   0.0103096463775504   0.0000000000000000
  0.0050308188630767   0.0123013768482443   0.0000000000000000
  0.0111799386902237   0.0180409137864515   0.0000000000000000
  0.8373107726191357  -0.0211334926288444   0.0000000000000000
  0.0624935355792051  -0.0391666954139108   0.0000000000000000
  0.9878682670932252   0.0017209544916756   0.0000000000000000
  0.0136778095139640   0.0198442269960848   0.0000000000000000
  0.8203090273240524  -0.0231167391866414   0.0000000000000000
  0.0738633143603066  -0.0418930499584099   0.0000000000000000
  0.8026551811301268  -0.0251343400368426   0.0000000000000000
  0.9852627685719384   0.0020876945791685   0.0000000000000000
  0.0861021386417074  -0.0444536409739349   0.0000000000000000
  0.7843840873894279  -0.0271778197795966   0.0000000000000000
  0.9824126513500548   0.0024873693265746   0.0000000000000000
  0.0991843265815398  -0.0468392532814141   0.0000000000000000
  0.0164236197329729   0.0216216836667636   0.0000000000000000
  0.7461418339277840  -0.0313078737465108   0.0000000000000000
  0.9793229393907722   0.0029189889597428   0.0000000000000000
  0.1130825286139299  -0.0490420520078216   0.0000000000000000
  0.7058944105034720  -0.0354399888107516   0.0000000000000000
  0.1277704618123611  -0.0510562827506626   0.0000000000000000
  0.1762568929815641  -0.0559042078350805   0.0000000000000000
  0.0194159739879911   0.0233724623981675   0.0000000000000000
  0.6639684116827792  -0.0395008026994765   0.0000000000000000
  0.1937838883744062  -0.0571083155282771   0.0000000000000000
  0.9759912934368556   0.0033826575228533   0.0000000000000000
  0.2119350336566717  -0.0581032139582273   0.0000000000000000
  0.1432165586985055  -0.0528747491799113   0.0000000000000000
  0.1593891568184451  -0.0544918670991958   0.0000000000000000
  0.0226532097601106   0.0250954139222151   0.0000000000000000
  0.6207078411914361  -0.0434191082996254   0.0000000000000000
  0.5764634620046084  -0.0471137377839725   0.0000000000000000
  0.9724158415910057   0.0038783673250912   0.0000000000000000
  0.2306739249637577  -0.0588890260835713   0.0000000000000000
  0.0261336289695199   0.0267893547234291   0.0000000000000000
  0.5315950381341085  -0.0505057454921963   0.0000000000000000
  0.4864703588817339  -0.0535094604401647   0.0000000000000000
  0.4414549182767121  -0.0560390634426787   0.0000000000000000
  0.9685983416513994   0.0044053178288238   0.0000000000000000
  0.2697570606452168  -0.0598365819607799   0.0000000000000000
  0.3969170552729402  -0.0580119076690758   0.0000000000000000
  0.0298553974799863   0.0284531857194991   0.0000000000000000
  0.9645418978552561   0.0049624144199126   0.0000000000000000
  0.3107174127482247  -0.0599745523566999   0.0000000000000000
  0.3532197168655907  -0.0593474025151865   0.0000000000000000
  0.9602493272443249   0.0055486932681955   0.0000000000000000
  0.0338165335406938   0.0300858994339835   0.0000000000000000
  0.0380150454409591   0.0316864823247920   0.0000000000000000
  0.9557225431564565   0.0061636004358678   0.0000000000000000
  0.0424489136491938   0.0332538049970267   0.0000000000000000
  0.0471161015618897   0.0347866669642923   0.0000000000000000
  0.9509632887889385   0.0068066585927330   0.0000000000000000
  0.9459737541185675   0.0074771441085412   0.0000000000000000
  0.0520144617255517   0.0362838733443521   0.0000000000000000
  0.9353156990700551   0.0088958033238094   0.0000000000000000
  0.0624935317401540   0.0391666944281135   0.0000000000000000
  0.0738633102849253   0.0418930490455120   0.0000000000000000
  0.9237713694002159   0.0104115616199952   0.0000000000000000
  0.0861021343485112   0.0444536401350998   0.0000000000000000
  0.9113626006299211   0.0120184567085017   0.0000000000000000
  0.0991843220904188   0.0468392525175462   0.0000000000000000
  0.8981160438094651   0.0137076731266115   0.0000000000000000
  0.1130825239435962   0.0490420513187447   0.0000000000000000
  0.8840586036192291   0.0154712343488011   0.0000000000000000
  0.1277704569818227   0.0510562821360933   0.0000000000000000
  0.8692172405930260   0.0173025513845012   0.0000000000000000
  0.1432165537277111   0.0528747486397878   0.0000000000000000
  0.8536242574066383   0.0191927758449732   0.0000000000000000
  0.1593891517258480   0.0544918666322352   0.0000000000000000
  0.8373107708732270   0.0211334928345504   0.0000000000000000
  0.1762568877862003   0.0559042074398506   0.0000000000000000
  0.8203090254010921   0.0231167394087162   0.0000000000000000
  0.1937838830953411   0.0571083152030304   0.0000000000000000
  0.2119350283118140   0.0581032137003017   0.0000000000000000
  0.8026551790260408   0.0251343402747870   0.0000000000000000
  0.2306739195716207   0.0588890258904683   0.0000000000000000
  0.7843840851007032   0.0271778200327233   0.0000000000000000
  0.2697570552113356   0.0598365818878674   0.0000000000000000
  0.7461418312636445   0.0313078740273454   0.0000000000000000
  0.3107174073396524   0.0599745523895525   0.0000000000000000
  0.3532197115457904   0.0593474026374948   0.0000000000000000
  0.7058944074605978   0.0354399891145804   0.0000000000000000
  0.6639684082655058   0.0395008030201497   0.0000000000000000
  0.3969170500997217   0.0580119078642495   0.0000000000000000
  0.6207078374111498   0.0434191086291270   0.0000000000000000
  0.5764634578798972   0.0471137381129498   0.0000000000000000
  0.5315950336908907   0.0505057458089039   0.0000000000000000
  0.4864703541532008   0.0535094607315534   0.0000000000000000
  0.4414549133024901   0.0560390636939180   0.0000000000000000
  0.9901595609719056  -0.0023783411927147   0.0000000000000000
  0.0326649145266362  -0.0334200843455863   0.0000000000000000
  0.9878329678703356  -0.0027145673674890   0.0000000000000000
  0.0733998606732272  -0.0440344159407381   0.0000000000000000
  0.9922372924577029  -0.0020726951087579   0.0000000000000000
  0.8846838814295012  -0.0208009306521702   0.0000000000000000
  0.9852539181750185  -0.0030832573491977   0.0000000000000000
  0.8205556230767344  -0.0253024477924150   0.0000000000000000
  0.9824277530968584  -0.0034836508822686   0.0000000000000000
 -0.0022154120548041  -0.0049277430541563   0.0000000000000000
[...]
POINT_DATA 4142
SCALARS continuity float
LOOKUP_TABLE default
-0.0006479393723123406
-0.0001622258509493704
-0.0012720118973660003
0.00012728341027096044
0.0003087055838409437
-0.0023412940263403837
0.00037860209241728787
0.00036644474159997203
-0.00510308400162039
0.0002663461544952406
0.0013722624728215872
0.00016269109826114596
0.012707178964776003
-1.5116375834938663e-05
-0.00017698652988911324
0.0017853993631672832
-0.0003680496195325019
-0.001178453897779481
0.011868044148384849
-0.0006008858852211113
0.013085277506424013
-0.0013327594089959092
0.010597842321081402
-0.0007551984755089713
0.009266324468392413
0.013062823193767574
0.005118600618651087
-0.0010770039219042161
0.007933145992104974
0.006659620995205878
0.01351170331339567
-0.0012507834964965952
0.005474439517322201
0.002545351311991076
0.012633244121686768
0.006062547350720375
-0.001437388834693526
0.004377281278305597
0.003319546690375169
0.011076142110262132
0.00326596854990578
0.0002545056898847831
0.002165954114177492
-0.0015266519884970897
0.0013084046795293423
0.008789449485837616
-0.0009038181862203778
0.001091282049094544
-0.001665447001997898
-0.0015765992177215308
-0.001684586449294309
-0.0004948850175071085
0.0006966541984965645
0.0037619746980603083
-0.023425244590204838
-0.01230824876973093
-0.01300024793224434
0.00829436306834514
-0.02236509113992376
-0.015016823852633095
-0.012347068419996932
-0.001739539304196
-0.0013870759655300068
0.00021478772040661726
-0.011222843827211042
-0.001734145081627478
-0.001729414122652721
-0.00192210189631925
-8.024606279839473e-05
-0.0019925210389704624
-0.001760888242869307
-0.00022964461814727651
-0.002499315142901539
-0.010102179813444398
-0.0020006102357588954
-0.0003122505935788689
-0.003139214752517195
-0.0020151645154106376
-0.003728702614796378
-0.005146779156926487
-0.008905931753476003
-0.001839343321282054
-0.005583690314332683
-0.000296604805296242
-0.006036318560615155
-0.004243724353123262
-0.0047004921483559245
-0.0076796868426749956
-0.0014927938440180972
-0.0011103274824977838
-0.0002274915317810708
-0.007416544321885318
-0.0064944802761020305
-0.0008285322072083056
-0.0008374025646810678
-0.0013471872596283083
-8.21257789041982e-05
-0.007352181985345342
-0.002452910181909225
-0.005383516495821017
6.527568656963291e-05
-0.00623260347642274
-0.004162683972801827
0.0002742076174746225
-0.004344133711820872
-0.0032815315334623076
0.00044271453932265026
-0.002223342909408384
-0.0010606894587457483
0.0006171696462074446
0.000889876914090233
0.00017882163519776978
0.001121225252010109
0.0013021349930563146
0.0014199389584069405
0.0013306623533695715
0.001647243555701182
0.0015076834565892225
0.0021285184437788854
0.0016007427006542933
0.002749005849495649
0.0017074612898232663
0.0033200204979996987
0.0017027955005944658
0.003819648520195316
0.0017519308587065194
0.004260270841046119
0.001729549199305356
0.004688508529180852
0.0017178819494318618
0.005126099983402697
0.005675307222372534
0.0019198307878363322
0.006951634082482753
0.0016487635931313035
0.007083512206991856
0.0020889810135642545
0.00587782627750699
0.003851340728427436
0.0018892227118052626
0.0017671230733259065
0.002162677008973107
0.0013332039416796234
0.000932452362285988
0.0006444798306486097
0.0006259127058045814
0.0010908921390829806
-0.0005362012337973121
0.0019377874850846767
-2.7277613868932818e-05
-0.0011908949949308951
-0.000945427076695303
-0.0013847459709979424
0.00023259727101428268
-0.001642213564369303
0.0004056284253859464
0.0020143200487217927
-0.0021100643727055782
-0.006855329922178295
0.000466377797305863
-0.0005284610560145288
0.0004481625079105502
0.00018139483924174446
-0.00332478563041154
0.005338495963451959
0.00034184468511382684
-0.001167374359110916
-0.0022645052024156736
-0.001463575484412324
0.00023456785289181322
-0.001650410554842576
-0.016712113482230066
0.0014216936394448056
5.167821975766255e-05
-0.00762304080923663
-0.0001138683844087138
0.0007451127980088619
0.0003736671267805541
0.003918653087891765
0.0010843923403037322
0.00043699290111695
0.0011618210748013873
0.002075857709124863
0.0013051811582445035
-0.00030818964436130753
-0.0112733075979042
0.01591183442943044
0.0003152109740483516
0.006781131267987751
-0.015409125265442275
-0.0005356741384979817
-0.0015389474054912295
0.0072078889226701885
-0.00192836413537141
0.0038931453099131197
0.0008515903651483876
0.0063615680182847285
-0.008894867466792095
-0.0007128106382032621
0.003001873419999073
0.005873425239703942
-0.008142989740406632
0.006961833882407501
-0.0014102288879149095
0.0030438944814958294
-0.008565951548451982
-0.0010163165658817837
-0.0005312791671573892
0.005321106699721126
-2.208119567944735e-05
0.0047282128812667
0.0010048353249327226
0.007073718356971234
0.0006083298821927529
-0.0011930177816962396
0.003577567226888863
0.00412302750496497
-0.00017037859808868066
0.002446485504248753
0.004522482834758844
0.006754646790263246
-0.0015985289077080076
0.003992835545907816
0.004165827599242
-0.0013791812524584972
-0.001495056321884852
0.0035075142241367354
-0.0005259619139684768
0.0023597957116634734
-0.0015818766606505775
0.006245457151161956
0.003264218140741517
0.0027714198029040312
0.0006324127757436748
0.0005140522387414608
-6.973727887027202e-05
0.0019439821513765779
-0.00039706058032838346
-0.0014667549478635104
0.0010463117778167536
0.0009771634699600753
0.006268047658791133
0.005335675472152212
-0.001538891352933578
-0.0009949016235642854
0.0013558063872595673
0.0009061281960196293
-0.0005342890366345468
-0.001601276617107018
-0.0014468387720770034
-0.0015138120056484381
-0.001454366118099512
-0.0016186924388872997
0.00163807668548863
3.576857606528701e-05
-0.0013455908475843588
0.0006020194285182582
0.0007138651159691722
0.0008095611630859786
-0.0015514360722059916
-0.010420851000119606
0.0024063934305851385
-0.0063024873305480384
0.002756425794983653
-0.006793570131274141
0.007315826537174509
0.001265477751075131
-0.000630938921665023
-0.015967914717950622
0.002925905489580933
-0.009805256040074517
-0.0007721471203163425
-0.006320357625172682
0.003099491595617613
-0.0016721505938162168
0.0005191456054580689
-0.0010001010504596304
-0.0013579416199924132
8.303508697729209e-05
-0.0034298915841654764
-0.005940863027374579
0.004750232189156731
-0.0016642022624076122
-0.0003584894215245486
-0.0011483719166303571
0.007854760865680922
-0.0018202723444647048
0.00039343681888010223
-0.00018260856723827478
0.0020040150532492874
-0.0013358793778076915
-0.0062712127734305964
-0.001723278890817956
0.0036913854784566304
-0.0003241203904868685
0.0006027707730895405
-0.0018126677609214576
-0.0011722412997390516
-0.005664499454003914
-0.006420459873252565
-0.0019105352989647816
0.008031006809475256
-0.0003980315492479977
-0.00032870034494770475
-0.0024574139185871958
0.004295802793490314
-0.001929653190456414
-0.006922405431308475
-0.0030712851791864317
0.004921707089425355
-0.004607717968302686
-0.001329599511440481
-0.005306487654711938
-0.0009991394137116097
-0.0017473278315069593
-0.0014160772479881482
-0.00509590774683545
0.005852352604185096
-0.0003758967179190283
0.004827148590626646
-0.00564578655862987
0.007705950202713105
-0.0036230007974889515
-0.010356747572524744
-0.004119518752364669
0.005563129768114816
-0.004856329682721373
-0.0005064910310951045
-0.0013909484422603405
-0.0006973529171146489
-0.000994877740522269
-0.008401458921528241
-0.0003005716014326258
0.006205316352866826
-0.006916331571380404
0.001958570824930268
-0.004358312643699701
0.0013407908130723732
-0.0006976787078772948
-0.006009609268502311
-0.0006870968151071897
0.007536789158654932
-0.001173833508147587
-0.0012585366361993592
-0.00014988292378324592
-0.0005299249216466936
-0.007028679134216425
-0.00160059570278512
-0.0022509721202946327
0.006849989373192115
-0.0038287712530121537
0.00016807944891654753
-1.6993795217235626e-07
0.022901458670294847
-0.005958813491316937
-0.001530571421266999
-0.00392784924271119
-0.00030865201839867703
0.00021385803280600833
-0.0010182649216422676
-0.0032855051221268726
-0.0001258706748393569
-0.0026085890179581932
0.0001734968261737637
0.0003851716933915752
2.6034150150740964e-05
-0.0018471965450810055
-0.0012647561708170481
-0.0007784046530265007
-0.026280015459768317
0.0005546300315890944
-0.005427431293890424
0.000850967181638411
0.0001962191963579214
-0.00013269363775217184
-0.0013252514066584634
0.001063394301532457
-0.0008514928981714633
0.0010162330348717238
-0.0015882095846176973
0.000939659794042323
0.0002885668479204395
0.0012759048421196349
0.00318854876319007
0.0010763157207536649
-0.006149675680487764
0.0014527015183839526
-0.0012449032378279686
0.0015155499197141928
0.0003823892072970598
0.0015444746805408842
0.001262972258127175
0.002129433791140078
0.00039084210030306124
0.0016495624390870732
-0.0017486748422104357
0.0027172208462937636
-0.001846847283127124
0.0016428677799852462
0.005141927280655005
0.0032445445018824386
0.0003241012680619538
0.0016903162595648055
-7.22372126907007e-05
0.0037191003397067115
0.00015488193091026228
0.0016659524213099453
-0.003500817371043623
0.004184725243689975
-0.001333573031165415
0.0016510078285173894
-0.001193841348411672
0.004669079322159774
-0.00011654380705304169
0.005308309303598451
0.0014275716231170945
0.0018213296406468054
-0.0005452188141900767
0.00648098892802716
-0.0016306838559852093
0.0016145207130871151
0.0015149931612750257
0.006778363560939846
-0.003516081238894907
0.002002838980353675
0.004046107549613095
0.005618797831068122
-0.00018832486109411617
0.0036284011227488166
0.0006354673018471418
0.0018076562770863655
0.0006149099296133257
0.0016784584640798111
-0.0028633052590724337
0.001970395302049144
-0.0014781230090926795
0.0012354005968076536
-0.0027992487175219766
0.0008229259055437659
0.00031608629311182846
0.0005187654244410731
-0.0013679015352475172
0.0004827130693377595
-0.004924423568656685
0.0009252223650056807
0.004428175570480284
-0.001808212635009965
-0.0012291322171798437
-9.751026745406007e-05
-0.0013240915017929864
-0.0012944472145002151
-0.0014702264198285938
-0.00169539745736687
0.0033895019759412164
-0.00023545383223743622
0.0027515656678346145
-0.0016981895477180718
0.005792991615769363
-0.006242223532755422
-0.001747490312099238
-0.0018909091647678065
0.001615524852882649
-0.00031916147511794395
-0.002637306228337595
-0.002293385140357808
0.002358716507196444
-0.0018993624100841233
0.0004329680015241849
-0.0028825778503458275
-0.0011407452706893057
-0.004412860058457293
-0.0045399122778985515
-0.005642012005141336
0.005960693725394349
-0.0017087734518032131
-0.0007771679320261891
-0.004894458496835118
0.0028038794897976174
-0.0003076040229438389
0.0003285815993929659
-0.005423964308489421
0.0032950959958919154
-0.003425790721885179
-0.00552129011523499
-0.003922307284993406
-0.0009746019865224388
-0.005031290684259186
0.0003540179860610619
-0.001345717485038881
0.0022876556145366546
-0.0009434144876686641
-0.005262398904911901
-0.00024631700476583586
0.00574772176517815
-0.006747778067514856
-0.002020249502606639
-0.0044350999818290856
0.0038289735982960293
-0.0006403977404592108
-0.0015201007907276567
-0.0006266944010349063
-0.0006812701806797353
-0.001114802202590313
-0.005774247646355504
-0.00011077730186435425
0.004393109988369481
-0.006907243465014769
-0.0010901252753252922
-0.0021976193948049145
0.002449278939441634
-0.0038537167760536173
-0.0023760299139894176
2.3839823224038315e-05
0.005554153604446523
-0.005897547043547802
0.004188596948371751
-0.0038816945179617974
-0.0005201589742828428
0.00022429145401442634
-0.00760607894008252
-0.003283736348831275
0.004980689765454907
-0.0026063348220622304
-0.00043910108676361697
0.0003839095278343409
0.002447739658273345
-0.0018637854027232013
-0.00678601784224273
-0.0007771659681422704
-0.0003053156784507021
0.0005477125239534515
0.001646265800579023
0.0008337666186461999
-0.00013354442834200746
-0.0001626314462906643
-0.004729206133832233
0.0010423848798798794
4.361767755674073e-06
0.0009858694092247176
-0.0010314199216386103
0.0008154116257681625
-0.0032349920977098327
0.0012526738039500339
-0.0015130726861871178
0.000900502606802245
0.0001656008698780791
0.0014297547254420373
-0.0013131940415841371
0.0012927817418861335
-0.0019264696312153828
0.0015219885299467251
-0.002455689261143075
0.0018789005855689548
0.00024517486326374713
0.0016273305760252244
-0.0006363959248269241
0.002457453711199834
-0.0024115586757412774
0.0016205372066189125
0.00016235361798727454
0.0029885514689462506
0.0003333715637336356
0.0016679479533864127
-0.0011567905034595824
0.0034733914418987634
0.00034072093072398457
0.0016428004821696731
-0.004119811120754649
0.0039502294916298536
-0.001434515049828672
0.0016280293300140255
-0.0010684122756227461
0.004434408362115688
0.00027837966477397007
0.005061916539102414
-0.0014938421654920073
0.0018083604573902853
0.00012862652434034383
0.006291134892937022
0.0027019038659254033
0.0015847625674215702
-0.0009581102856495889
0.006640785548805648
-0.0017095443771809572
0.0019794937011951164
-0.00010450597167271385
0.005544206250138301
-0.002857213849931805
0.0035718377095174136
-0.0004488871271940845
0.0017739289330813625
-0.0016449153336172747
0.001637096267739034
0.001329106013690434
0.0019090660315296878
0.004482290260791544
0.001186392739649202
0.0006263023364927686
0.0007674856029965853
-6.390897540486712e-05
0.00045745294104950645
-8.162701832580002e-05
0.0004170423172305006
-0.004980269403345495
0.0008603882716443472
-0.00029844786370355114
-0.0010869122740924844
-0.001823715655596265
-0.004378743150381568
-0.0002693473810660698
0.005162352054772367
-0.0019869082920925853
-0.0009564321686503252
-0.0018176606778864358
0.001138935703628141
-0.0025225680076422508
0.00034039352432931524
-0.004005512683879169
0.001755198820131431
-0.004428908070386152
-0.004621777810736633
-0.0016121167803888328
-0.0009303815346802952
-0.004483460422549697
0.0002071607523180772
-0.0002596473984793228
0.003475942073069571
-0.005022175047876751
-0.004407315725599789
-0.0030368368664706728
0.004875675732238138
-0.0035208643532500935
-0.0026574988847003823
-0.003948756511275026
0.0024270736396056385
-0.0012327006940208649
-0.0048818024530190626
-0.0008153272495439541
0.003127369453893258
-0.00020642344107126633
-0.0006625903107934399
-0.00639137895555316
0.0024286625618956227
-0.0035009563103434753
-0.002698580090140105
-0.0005010385323670935
0.004483161800590194
-0.0004813628072750602
0.0038325012713739505
-0.000971250057272798
-0.0005018348716014043
-7.996410018747286e-05
-0.005678102729583344
-0.006665462138592943
0.0038378865788221113
-0.0020635322005420407
0.0014661189381267896
-0.0030737049968185904
0.009646680929494495
4.058113606312391e-05
-0.005491281335142016
-0.00573667531255292
-0.00029946122291515855
-0.0037505724827396696
0.0015120751111649155
0.0002304359489748046
-0.0001411478526923644
-0.002658582791548985
-0.003825375149497479
-0.0021361513948467245
-2.0673538536878e-05
0.0003777723214253254
-0.000623094594684744
-0.0015594616547478517
-0.01052213832910863
-0.0005314295450539248
-0.001358316150282261
0.0005322028378170326
0.0001311104697535886
0.0008149282441816672
0.0010656237411863136
-0.0001027546891741289
-0.0018054561117114903
0.0010118618311247213
-0.0022261120147254983
0.0009838034666896788
-0.0040900963919938155
0.0005625123292200931
0.00019473380468546702
0.001216448806980632
3.804341682738471e-05
0.0005414706283897726
-0.0035499530916264926
0.0013901177681296807
0.0001143231296029551
0.000858548655119409
0.00028052895688220384
0.0014800638614498244
-0.0009615513562047239
0.0013950320761357527
0.00028951267748828993
0.0015835707535668269
-0.003177808617308007
0.001950146343944874
-0.0012994913853752743
0.001573575647747463
-0.0006167168354458531
0.002477222524107946
0.00023737701054338083
0.001618294785285549
-0.0013273847471831264
0.002969346639736592
0.00011235876398830084
0.0015891427674496054
0.0024723664455046806
0.003457076241427709
-0.0009969736718747602
0.0015703509272727144
-0.003046986545691077
0.003951687666902323
-9.5787058406139e-05
0.004600816110081749
0.001244849301758836
0.0017455238857669083
-0.0003726345426522268
0.005885477037692764
-0.0014645065178803508
0.001515988097373143
0.002928912228765513
0.006359942164674683
0.004114386742889938
0.0019059341386285275
0.0004070889638795281
0.005351915928324636
-7.787828284086283e-05
0.003416720285815766
-0.0022366883995034496
0.0016855754420308905
-0.005233220351599746
0.0015330923433825659
-0.003641646720379013
0.001756581926703401
-0.0023515919910492046
0.0010658371926478383
0.004187477348303109
0.0006313772297363043
0.000890096213905067
0.0003083812611624982
0.0007764996256581701
0.0002599929914493492
-0.0013296003496715348
0.0007018374180261598
-0.0006497274884636649
-0.003252846206566394
-0.00014895582719612368
-0.0006694955443129773
-0.0014203670940479778
0.00021788494041631823
-0.0035365352837928936
-0.0009883257658191802
-0.001702853020372187
-0.003628607113252479
-0.0002222047621830311
0.004481288400255771
-0.0017469710220207452
-0.0010983870984308214
-0.0016753981651309248
1.2125814155557001e-05
-0.0021492417830001743
0.00034024884059842455
-0.003447480054145273
0.0007555441436063678
-0.002961968552521006
-0.0038535064320838154
-0.0014442919604010695
-0.0008488790676873635
-0.0039039343562746603
-0.0015519696067532686
-0.00021112233435905463
0.0018044610808744994
-0.004454821512139276
-0.004071236327891647
-0.002572484233555126
0.0042173068826720245
-0.002997794271917641
-0.002350117650116724
-0.002410922563529067
0.0015394425789905842
-0.0010389165728438476
-0.004475682887092924
-0.0006001705190417984
0.0023022693675556487
-0.00016611666868175532
8.108573387633899e-05
-0.005854281548574237
0.0018361316600373303
-0.0019323338295075007
-0.0029205560052208415
-0.00027124469421534365
0.0037241841354644506
-0.000249316792249966
0.0035196201013406397
-0.0007505015723498395
-0.0004620923693818953
-4.718469816278754e-05
-0.004654885782926829
-0.006289695587805972
0.003074890928209249
-0.001859305943886484
-0.00031215545988941225
-0.00151601242202918
0.002565744335158932
5.513507224650025e-05
-0.004793813349961737
-0.005475492021381769
-0.0002701383327063456
-0.0035457774040961857
0.001396618802761335
0.0002342974574255721
-0.00013101014697050216
-0.001158961829634373
-0.0035087607171225134
-0.0007260992127011415
-3.18480239375768e-05
0.00036378596251345423
9.301406390370457e-05
-0.0003281177234554615
-0.0026210655525490604
0.0004995578603317199
-0.0010882149313981868
0.0005019960685684224
0.0001161862308539983
0.0005780459201272617
-0.0015312292981537368
0.0009565997279461123
-0.0016485494731027842
0.0014459727055702975
-0.005668182748515137
0.0006072373882826368
0.00015865784869417197
0.0011523335647791787
-0.0011185694812050567
0.0003323829623712604
-0.0017687303812650302
0.0013216482338725714
3.4069585374965706e-05
0.00046022035467880017
0.00024850408576008066
0.0014058589101897446
-0.0006071700176176366
0.000857762216950361
0.000260282973812081
0.0015057032856656664
-0.002854120489443083
0.001319910926641076
-0.0009410622654052458
0.0014897309497931234
0.0001633074900052761
0.0017919418448340838
0.000214787321908174
0.0015283149045170015
-0.001038549474077774
0.0022577926425291716
0.00010882186171248581
0.0014925638907123055
0.002268348650320694
0.0027376564508346407
-0.0006729076916652966
0.0014676034340258294
-0.004935425876088505
0.0032350848589309668
-4.31529161733221e-05
0.00391824777169419
0.0025702479769223255
0.001633388055753051
-0.00026526447228902774
0.0052487917607243716
-0.0011551743234731477
0.0013962350168435893
0.001323400257867669
0.005905213216677485
0.0037837528113726826
0.0017743668923160124
0.00037233093981105416
0.005025958447229042
-0.0001123759597651822
0.00316173506443821
-0.0006550548412504619
0.0015294356767078404
-0.0045390953991016475
0.0013508109210159406
-0.0015167411061551943
0.001513824276812379
-0.0042792005033260635
0.0008569967732302316
0.0020194684862766886
0.00039754592925980524
0.0005559160167747602
5.725515571994191e-05