# vtk DataFile Version 1.0
GRUMMP topologically 2D mesh
ASCII

DATASET UNSTRUCTURED_GRID
POINTS 4142 float
  0.9902132100051211  -0.0013897599745845   0.0000000000000000
  0.9878682672001325  -0.0017209544766007   0.0000000000000000
  0.9922830260938109  -0.0010965337451688   0.0000000000000000
  0.9852627687065505  -0.0020876945602550   0.0000000000000000
  0.9824126515147726  -0.0024873693035198   0.0000000000000000
  0.9941016532545700  -0.0008382294190312   0.0000000000000000
  0.9793229395886266  -0.0029189889321549   0.0000000000000000
  0.9759912936709813  -0.0033826574903297   0.0000000000000000
  0.9957253756688895  -0.0006072067599891   0.0000000000000000
  0.9724158418644283  -0.0038783672872607   0.0000000000000000
  0.9972114818934485  -0.0003956828894990   0.0000000000000000
  0.9685983419668763  -0.0044053177853816   0.0000000000000000
  0.9986172604849257  -0.0001958749290171   0.0000000000000000
  0.9645418982154840  -0.0049624143705746   0.0000000000000000
  0.9602493276520160  -0.0055486932126648   0.0000000000000000
  1.0000000000000000   0.0000000000000000   0.0000000000000000
  0.9557225436143375  -0.0061636003738353   0.0000000000000000
  0.9986172604763917   0.0001958749302285   0.0000000000000000
  0.0136778115501445  -0.0198442283865115   0.0000000000000000
  0.9509632892996972  -0.0068066585239019   0.0000000000000000
  0.0111799405480040  -0.0180409152078963   0.0000000000000000
  0.9972114818757430   0.0003956828920181   0.0000000000000000
  0.0164236219435115  -0.0216216850259729   0.0000000000000000
  0.9459737546847580  -0.0074771440326796   0.0000000000000000
  0.0194159763686392  -0.0233724637256901   0.0000000000000000
  0.0089312659290954  -0.0162123970812813   0.0000000000000000
  0.9957253756403164   0.0006072067640564   0.0000000000000000
  0.9353156997544615  -0.0088958032333210   0.0000000000000000
  0.0226532123065557  -0.0250954152174871   0.0000000000000000
  0.0261336316774566  -0.0267893559859237   0.0000000000000000
  0.0068429846519911  -0.0142695304151425   0.0000000000000000
  0.9237713702124288  -0.0104115615140689   0.0000000000000000
  0.0298554003449755  -0.0284531869488138   0.0000000000000000
  0.9941016532123735   0.0008382294250309   0.0000000000000000
  0.0050308200222286  -0.0123013782195995   0.0000000000000000
  0.0012596550434314  -0.0062543845982477   0.0000000000000000
  0.9113626015789812  -0.0120184565864932   0.0000000000000000
  0.0338165365583016  -0.0300859006297539   0.0000000000000000
  0.0005600587198625  -0.0041872521188657   0.0000000000000000
  0.0034956879705714  -0.0103096477045821   0.0000000000000000
  0.0380150486067802  -0.0316864834866382   0.0000000000000000
  0.0001400674572995  -0.0020989425108620   0.0000000000000000
  0.0424489169588349  -0.0332538061244847   0.0000000000000000
  0.8981160449036193  -0.0137076729882106   0.0000000000000000
  0.9922830260341767   0.0010965337536290   0.0000000000000000
  0.0022384105171692  -0.0082946477552229   0.0000000000000000
  0.0000000000000000  -0.0000000005380880   0.0000000000000000
  0.0471161050109934  -0.0347866680569130   0.0000000000000000
  0.8692172420003259  -0.0173025512123363   0.0000000000000000
  0.8840586048664243  -0.0154712341935952   0.0000000000000000
  0.8536242589802903  -0.0191927756559575   0.0000000000000000
  0.0520144653095357  -0.0362838744017245   0.0000000000000000
  0.9902132099234322   0.0013897599861408   0.0000000000000000
  0.0001400673054027   0.0020989413744649   0.0000000000000000
  0.0005600583994229   0.0041872509286527   0.0000000000000000
  0.0089312642537700   0.0162123956290166   0.0000000000000000
  0.0068429832427153   0.0142695290019493   0.0000000000000000
  0.0022384098100130   0.0082946464730838   0.0000000000000000
  0.0034956870455263   0.0103096463775504   0.0000000000000000
  0.0050308188630767   0.0123013768482443   0.0000000000000000
  0.0111799386902237   0.0180409137864515   0.0000000000000000
  0.8373107726191357  -0.0211334926288444   0.0000000000000000
  0.0624935355792051  -0.0391666954139108   0.0000000000000000
  0.9878682670932252   0.0017209544916756   0.0000000000000000
  0.0136778095139640   0.0198442269960848   0.0000000000000000
  0.8203090273240524  -0.0231167391866414   0.0000000000000000
  0.0738633143603066  -0.0418930499584099   0.0000000000000000
  0.8026551811301268  -0.0251343400368426   0.0000000000000000
  0.9852627685719384   0.0020876945791685   0.0000000000000000
  0.0861021386417074  -0.0444536409739349   0.0000000000000000
  0.7843840873894279  -0.0271778197795966   0.0000000000000000
  0.9824126513500548   0.0024873693265746   0.0000000000000000
  0.0991843265815398  -0.0468392532814141   0.0000000000000000
  0.0164236197329729   0.0216216836667636   0.0000000000000000
  0.7461418339277840  -0.0313078737465108   0.0000000000000000
  0.9793229393907722   0.0029189889597428   0.0000000000000000
  0.1130825286139299  -0.0490420520078216   0.0000000000000000
  0.7058944105034720  -0.0354399888107516   0.0000000000000000
  0.1277704618123611  -0.0510562827506626   0.0000000000000000
  0.1762568929815641  -0.0559042078350805   0.0000000000000000
  0.0194159739879911   0.0233724623981675   0.0000000000000000
  0.6639684116827792  -0.0395008026994765   0.0000000000000000
  0.1937838883744062  -0.0571083155282771   0.0000000000000000
  0.9759912934368556   0.0033826575228533   0.0000000000000000
  0.2119350336566717  -0.0581032139582273   0.0000000000000000
  0.1432165586985055  -0.0528747491799113   0.0000000000000000
  0.1593891568184451  -0.0544918670991958   0.0000000000000000
  0.0226532097601106   0.0250954139222151   0.0000000000000000
  0.6207078411914361  -0.0434191082996254   0.0000000000000000
  0.5764634620046084  -0.0471137377839725   0.0000000000000000
  0.9724158415910057   0.0038783673250912   0.0000000000000000
  0.2306739249637577  -0.0588890260835713   0.0000000000000000
  0.0261336289695199   0.0267893547234291   0.0000000000000000
  0.5315950381341085  -0.0505057454921963   0.0000000000000000
  0.4864703588817339  -0.0535094604401647   0.0000000000000000
  0.4414549182767121  -0.0560390634426787   0.0000000000000000
  0.9685983416513994   0.0044053178288238   0.0000000000000000
  0.2697570606452168  -0.0598365819607799   0.0000000000000000
  0.3969170552729402  -0.0580119076690758   0.0000000000000000
  0.0298553974799863   0.0284531857194991   0.0000000000000000
  0.9645418978552561   0.0049624144199126   0.0000000000000000
  0.3107174127482247  -0.0599745523566999   0.0000000000000000
  0.3532197168655907  -0.0593474025151865   0.0000000000000000
  0.9602493272443249   0.0055486932681955   0.0000000000000000
  0.0338165335406938   0.0300858994339835   0.0000000000000000
  0.0380150454409591   0.0316864823247920   0.0000000000000000
  0.9557225431564565   0.0061636004358678   0.0000000000000000
  0.0424489136491938   0.0332538049970267   0.0000000000000000
  0.0471161015618897   0.0347866669642923   0.0000000000000000
  0.9509632887889385   0.0068066585927330   0.0000000000000000
  0.9459737541185675   0.0074771441085412   0.0000000000000000
  0.0520144617255517   0.0362838733443521   0.0000000000000000
  0.9353156990700551   0.0088958033238094   0.0000000000000000
  0.0624935317401540   0.0391666944281135   0.0000000000000000
  0.0738633102849253   0.0418930490455120   0.0000000000000000
  0.9237713694002159   0.0104115616199952   0.0000000000000000
  0.0861021343485112   0.0444536401350998   0.0000000000000000
  0.9113626006299211   0.0120184567085017   0.0000000000000000
  0.0991843220904188   0.0468392525175462   0.0000000000000000
  0.8981160438094651   0.0137076731266115   0.0000000000000000
  0.1130825239435962   0.0490420513187447   0.0000000000000000
  0.8840586036192291   0.0154712343488011   0.0000000000000000
  0.1277704569818227   0.0510562821360933   0.0000000000000000
  0.8692172405930260   0.0173025513845012   0.0000000000000000
  0.1432165537277111   0.0528747486397878   0.0000000000000000
  0.8536242574066383   0.0191927758449732   0.0000000000000000
  0.1593891517258480   0.0544918666322352   0.0000000000000000
  0.8373107708732270   0.0211334928345504   0.0000000000000000
  0.1762568877862003   0.0559042074398506   0.0000000000000000
  0.8203090254010921   0.0231167394087162   0.0000000000000000
  0.1937838830953411   0.0571083152030304   0.0000000000000000
  0.2119350283118140   0.0581032137003017   0.0000000000000000
  0.8026551790260408   0.0251343402747870   0.0000000000000000
  0.2306739195716207   0.0588890258904683   0.0000000000000000
  0.7843840851007032   0.0271778200327233   0.0000000000000000
  0.2697570552113356   0.0598365818878674   0.0000000000000000
  0.7461418312636445   0.0313078740273454   0.0000000000000000
  0.3107174073396524   0.0599745523895525   0.0000000000000000
  0.3532197115457904   0.0593474026374948   0.0000000000000000
  0.7058944074605978   0.0354399891145804   0.0000000000000000
  0.6639684082655058   0.0395008030201497   0.0000000000000000
  0.3969170500997217   0.0580119078642495   0.0000000000000000
  0.6207078374111498   0.0434191086291270   0.0000000000000000
  0.5764634578798972   0.0471137381129498   0.0000000000000000
  0.5315950336908907   0.0505057458089039   0.0000000000000000
  0.4864703541532008   0.0535094607315534   0.0000000000000000
  0.4414549133024901   0.0560390636939180   0.0000000000000000
  0.9901595609719056  -0.0023783411927147   0.0000000000000000
  0.0326649145266362  -0.0334200843455863   0.0000000000000000
  0.9878329678703356  -0.0027145673674890   0.0000000000000000
  0.0733998606732272  -0.0440344159407381   0.0000000000000000
  0.9922372924577029  -0.0020726951087579   0.0000000000000000
  0.8846838814295012  -0.0208009306521702   0.0000000000000000
  0.9852539181750185  -0.0030832573491977   0.0000000000000000
  0.8205556230767344  -0.0253024477924150   0.0000000000000000
  0.9824277530968584  -0.0034836508822686   0.0000000000000000
 -0.0022154120548041  -0.0049277430541563   0.0000000000000000
[...]
POINT_DATA 4142
SCALARS continuity float
LOOKUP_TABLE default
0.0026182854494557557
0.0018078904440651095
0.0032386212459598667
0.0013442311920273803
0.0010052794707544512
0.009229801361055839
0.0007632338218443839
0.0005823433785368088
0.009075723615458234
0.00044391049410878687
0.007267914766017782
0.0003366372270518998
0.6555892157923799
0.0002504059918899057
0.00018078487932646656
-0.0012385002636189192
0.00012281870116090705
-0.665946533074807
-0.00012750293128631427
7.343684221676141e-05
-0.00015580971563092661
-0.006925894384645627
-8.999351207536648e-05
2.2400501236420207e-05
-4.730902006654313e-05
-0.0002042458295340483
-0.00888663983839027
-3.6672255753922866e-05
-4.337615737350653e-06
3.853480256545393e-05
-0.00019934367400370012
-8.645095404433035e-05
8.006817141372406e-05
-0.009198650682102258
-0.0002035542760921301
-2.3949133469518997e-05
-0.0001286554526994557
0.00012047124994098034
0.00011364680421900482
-0.00017813198213451658
0.00015586368606713353
0.0002694942250672936
0.00018700025163324418
-0.00016193838090103525
-0.003152956340560229
-0.0001202574198310779
0.00046161779827949025
0.00018933931466157862
-0.00021349226627451017
-0.0001885895176952599
-0.00023248655227794
0.0002684847958067218
-0.0025715232802132923
0.0007200809918737044
0.0005974986459394579
0.0006725654194486545
0.0007585246193643456
0.0010358243209625361
0.0008050286333193558
0.0008096741537884344
0.000583565439678157
-0.000251254406134103
0.00025915202329025277
-0.001781935628608307
0.0004903814820321341
-0.00026498269117605165
0.0003337076113970825
-0.0002775296756137828
-0.001344051355833601
0.00036951444585350937
-0.000288026882251929
-0.001019074580530572
0.00039366950317889165
0.00040143737017222955
-0.0002939078346035079
-0.0007913850471164422
0.00041031370458215807
-0.0002993858453807479
0.0004226357080805499
0.00043567411274554813
0.00031583910887889597
-0.0002929617913971571
0.0004281880537638022
-0.0006218417882509783
0.00040158674155115094
0.00043116958002300436
0.00043564352302132557
0.00023725242608757405
-0.0002692137001659127
-0.00022689026042902147
-0.0004936249804096217
0.00039117044399145274
0.00016471838830592095
-0.00016566152967978934
-8.531350868574769e-05
1.1414016136595586e-05
-0.00039412690540119815
0.00032775493825341797
0.00011552199794698729
9.993751875405271e-05
-0.0003152163806254164
0.0002894498978848095
0.00021146592224258686
-0.00025123308463769975
4.3503582919595365e-05
-5.177800412508212e-06
-0.0001980661100525928
-4.875272383952612e-05
-0.00010589919629662512
-0.0001528736877091355
-0.00010851344938768987
-8.961272281356423e-05
-5.608860323773847e-05
-0.00018378152466769774
-0.00021537612718156498
-1.3845361352425721e-05
-0.00026130237091591554
2.125137465204472e-05
-0.00029335317977371674
4.6313788450147356e-05
-0.000315773197948556
6.721744298063476e-05
-0.00033246176714792834
8.09869691385007e-05
-0.0003451215575339246
9.303553123786146e-05
-0.00035521671541222197
0.00010005757016674153
-0.0003629068047516805
0.00010528150843961526
-0.0003701450748584284
-0.00038858523079500636
0.00011193060114415471
-0.00035807991858380274
0.00010229414855301899
-0.0003868634598197553
9.998916241667987e-05
-0.0003771307354934893
-0.0003786993986874749
7.276625153912089e-05
4.3221362407306826e-05
-0.00034535296968235806
-1.8967788167492206e-06
-6.0355087928869156e-05
-0.00013013381923046672
-0.00020725720519872354
-0.00028358089403416155
0.0028308197942460054
0.00015135230498733787
0.0017905760155283842
0.00030615706822752106
0.0027193515688925707
-0.00019438310039579876
0.0013441718378895764
-0.0002649920659953265
0.000995463572779652
0.0003232728177774445
0.008732873020921472
0.0004940951917922109
0.0007569911253999031
0.0002804628283363341
0.0005787050920261325
-0.0016196008134699053
-0.006184195577479497
0.00022276830068360524
0.00044219872665205264
0.0002300953555185077
0.01175569609939351
-0.00021929999799316527
0.00033604100204141167
-0.0002513608169738611
-0.18533663575312703
0.00016392604332328114
0.0002504839134331512
0.0005583140347296161
0.00018106491901227843
-0.001510948387024447
0.033339392439757386
-0.0361847720913463
-0.02830110174553607
-0.0066779944099344506
-0.0007679714045248229
0.004943128879748134
0.026729668668183573
0.00012323092065203694
0.0006544566457544014
0.18705056731139572
0.00037444742224682965
-0.0002344881879692564
0.0006351740164543882
7.387756429828168e-05
0.00024398433276329455
-0.0002718901616603982
0.0007029465323482416
-0.012604249778397206
0.0001782577376960446
-0.00018639786862899074
0.0006468227367110234
2.254439257102963e-05
9.75554665200544e-05
-0.00013219026482073687
0.0006088182444414413
-0.0003066436470072579
-0.00016415116380891752
0.006581729546980673
0.0005729444593105723
-3.5822476724537115e-05
0.00037837139289021067
-7.846257227174057e-05
0.0005962264672058034
-2.4539017412673466e-05
-0.002088602791379914
-0.0003041655076638583
-0.0023385509168056414
-8.575206155294268e-05
0.00016509317875308853
2.7025115548910354e-05
0.0002243946879574358
-0.008779682266863398
0.0002439979682885893
-0.000280031243522882
-0.00023251721198499993
9.19284505596599e-06
0.0002223846951484403
-0.0001279950459520537
-0.00018864689743544244
7.531574570802454e-05
0.0004384883279963323
0.00016370174795966538
-0.00021356755703697127
-0.00021952945079904693
0.00012073390936251839
0.00011812542789090923
0.00016329175170183823
0.0003276408499613203
0.00017121608802507057
0.00015630803971633422
0.0004773308899659674
-0.00016118999392446864
-0.0019653833611490653
-0.0026387305436238206
0.00015039163540094732
-0.00012112352339579219
-0.00021551879508520229
0.0004980417435192491
-0.002700053173363031
0.00017067499871988533
0.00032281623622749364
-0.00021272429009437364
-0.00016211179671038912
-0.00018773182038567086
-0.00019055397175606187
-0.00023160205933592498
0.00015672927626241367
0.00023557850448606448
-0.0001680793207561276
-0.002794100419991301
0.0003830125505218818
0.0007079435385621804
-0.0002344498309819999
0.0007291115050321163
0.00012543144045815564
0.000751373248421364
8.682847276388189e-05
0.0008408602707843184
8.717389660389978e-05
0.0009691295227452996
0.00021982302744194586
0.0008816706021481484
0.00030344756857549803
0.0008850727795944372
0.00027764588609214505
0.0006476125520684593
9.248500674924386e-05
-0.00025051953985576365
-0.002103598769899316
0.000246614214830107
-0.00012881808762537953
-0.001766500807157262
0.00041454400247169145
0.0005412345900956498
0.0002238430854063695
-0.00026405508676053053
0.0005147253138925363
0.00032334655220079265
3.195694536426499e-05
-0.00027633680339991915
0.00032261901255011786
-0.0013445509290472234
-0.005656235880860461
0.0003629105857080219
0.00047700622134063655
-0.00028773983729807134
5.6674163018338825e-05
-0.001009112268128458
-0.0012444931108660923
0.0003896940076252065
-8.672342115889868e-05
0.0004382969725447726
0.00037962548758153317
-0.0002927613724030114
-8.442197447725036e-06
-0.0007850089442109919
0.00029253326796339565
0.000408162618496743
2.2722966256757932e-05
-0.0002984576361969389
0.000418837171867031
0.0004217760874689359
-9.088161618131586e-06
0.00043679214872577174
-0.00022584997235981536
0.0003401562842683576
-3.705073053382061e-05
-0.00029196385342061587
0.0005437361810106234
0.0004296097201027589
-0.00797228955503453
-0.0006181958533654315
0.000219524177383871
0.00040299375166590864
-4.391503625972323e-05
0.00043122392803265897
0.00047122428795568443
0.0004364424975539178
-3.563677628115271e-05
0.00025141625405207334
0.0002471260104730361
-0.000268200047956271
2.0851893797419195e-05
-0.00022572552342100158
0.00045001868776238166
-0.0004917527774368579
-5.566809284427589e-05
0.0003929949576097703
0.0002796726041106153
0.00017150262800611505
-0.008798172837186976
-0.00016438229528109526
0.0003430753430760825
-8.392047423667834e-05
-5.602883735822183e-05
1.301071836873135e-05
-0.0002013156539216396
-0.00039337564035489564
7.159292957950625e-05
0.00032956962582065755
-0.00025331164399522205
0.00011714773858442263
-6.30634835213377e-05
0.00010061469180974694
0.0003117052962060934
-0.00031487442587094054
-0.08336542363392506
0.00029142613216495423
0.00021257514562679158
0.00021333459149249406
0.00012075996426596926
-0.0002512788150218042
-0.00018725636302902498
3.9133472631150653e-05
0.000177847587559005
-1.3807697814242643e-05
-0.0015060410710946157
-0.00019823516084274123
0.00024611036882357293
-5.816609636879664e-05
-0.00013514572740827915
-0.00010675162748060123
0.08588750480272318
-0.00015309880649039492
0.00030916634153873044
-0.0001085564511860713
0.00032987296332711544
-0.00012130075005924503
-0.00024453222010403574
-5.6718598144498465e-05
0.008769725725667784
-0.00019423411996331207
-0.0002669156616203186
-0.00023012604482717034
0.0004332855789400508
-1.4375549257372962e-05
0.00024390417530615585
-0.000275644078609596
0.008346188163901059
2.071234384140324e-05
0.0002800366415420176
-0.00030718698917206477
0.0005658194816502975
4.5725825653014023e-05
-0.0003305274015334754
-0.0003286785338559017
0.0007372614668706221
6.663032466799723e-05
-0.0002791915684433937
-0.00034417569244820197
0.005735587709197043
8.031429332208804e-05
0.00023196590531077165
-0.00035597256731159156
0.0009611364487949635
9.225624023020536e-05
-0.0011994003360837064
-0.000364905187080162
0.001271236192475726
9.94353027882838e-05
0.00039770214469810413
-0.0003717231180870187
0.0027897550530013183
0.00010462684837576913
0.0003146266710149111
-0.0003779462630727452
0.00164233542670382
-0.00039400855430170843
-0.0028612019522558842
0.00011049440996452935
0.0023797127593848215
-0.00036730066692273756
-0.00029042495561908745
0.00010223633938124881
0.012859144046061857
-0.0003917444141020644
0.0006291660219076218
9.893376359966681e-05
-0.004554070619944334
-0.00038143807935921153
-0.00092050862230276
-0.00038221452182763923
-0.0004955227454253227
7.167491170026694e-05
0.0003315590767669572
4.2064595099572894e-05
0.0036459794057784457
-0.0003482703049316351
0.00034025561241648626
-3.134809228372059e-06
0.0019782354417110393
-6.17561510233815e-05
-0.0013850039188567234
-0.00013196711730222558
0.00028950009582430806
-0.00020925891867905843
0.00027936969629594296
-0.00028598664961873484
-0.0031075424421142836
-0.00027723134662769965
-0.0001753311573059307
-0.0012734744332588892
-0.00013094690916276073
0.00034521991536975717
-0.00023814287919666084
-0.00028862106344395205
0.0002770087338483025
-0.0009752954201776694
6.393978608008163e-05
0.0003725987944539748
0.0002112886132093407
0.00042504982757737543
0.0002635289580430194
-0.00029367903886270286
-0.003666510662958652
-0.0007651206930402745
0.0004698005319488136
0.00039196750536994875
0.0001424084184795837
-0.00029923732802546014
-0.0016899868379406883
0.0004065952917694586
-8.893081003412904e-05
0.00042554547702026004
0.00060491427068479
0.00035325026146832897
0.0002067618929163275
-0.0002927610172261868
0.0004385775736129822
0.0004197844769491809
0.00013843011332295848
-0.0006042653439573582
0.00027117019123126725
0.00039419807486143276
0.0001416619798209904
0.0004173773295182642
0.0004092243886967795
0.0004237855250990944
-3.980147276491391e-05
0.0002809538534315064
-0.0009066472173418576
-0.000269045453679757
0.0010152089682126414
-0.0002266606534587568
0.00022814054146385915
-0.00048164525030653944
0.0001979472152183495
0.0003861504857091919
0.0004977542367800498
0.00021185598062297212
0.00014973947192953606
-0.00016531121600748318
-0.0002938450397302223
-8.492792490574087e-05
1.716628592603325e-05
1.170627461110855e-05
0.00029603626746220566
-0.0003855910150366385
0.00016167146271241402
0.0003240994908834992
-0.0002368477385949217
0.0001153374849797331
-0.0013536961445524442
0.00014760209199846794
0.0004558729606675248
-0.0003087735877515984
0.00019191995337153282
0.00028754134609280843
0.00016094293531558122
0.0002106822519222045
6.704604208791457e-05
-0.00024637780333933547
0.0003979437723410939
8.930555148350131e-05
0.00017673008089636488
3.81486995410673e-05
0.00021890504196882122
-0.0001939645229571015
0.031548963707022974
-6.558918434067031e-06
0.0003527875325815783
-5.850665636393378e-05
0.00011551565755742916
-0.0001490796167872704
0.0002261332059569237
-0.00010491075471260759
0.00017110660945949746
-7.469771526835649e-05
0.00016453960657650138
-5.3562722461210505e-05
0.00023715932083058098
-0.0001486529103526963
-0.0002125065667464605
-0.00018715509429847505
-0.030381501579728524
-1.1564893285071648e-05
-0.0002567617002946841
-0.00023711331778790708
0.00031759364296317545
2.335072999681126e-05
0.0005165668230440628
-0.00027320519324973885
0.0013021337347543169
4.834408377974998e-05
0.00023022887136978947
-0.0002987362257516244
0.00041579494906406425
6.92703278939093e-05
-0.00020679352761150268
-0.00031772285689456604
-0.0007121297834240058
8.299289674014315e-05
-0.001282677884978218
-0.00033239323874200257
0.0005401807043338993
9.484927613956854e-05
-0.00014281212268744454
-0.0003438878365986915
0.000700314097504844
0.00010197784641572987
0.00011002920122678448
-0.0003530750526075501
0.0037287040435980954
0.00010698236580547275
-0.0002550574656333852
-0.0003615123915268782
0.0009075782405539123
-0.0003800905229689802
-0.00027037790217906635
0.00011308925621520629
0.0011958260944079015
-0.00035490054711289124
0.00018917743786717075
0.00010481751709748654
0.002161514091094568
-0.0003814177700212923
0.0002725272380648569
0.00010152330787584073
0.001525839874690957
-0.00037252460121951867
0.0004585593818130119
-0.0003751715047400341
0.002135373706444201
7.416605950818556e-05
-0.00028261818864208605
4.4600849491704377e-05
0.004428186681931742
-0.0003426652461605574
0.00017324517420013737
-4.935468830478319e-07
-0.00041893832529669284
-5.895620250007259e-05
-0.0010459611701350846
-0.00012869121161111576
-0.0052390913897828505
-0.00020557435733927447
0.000590596216495064
-0.00028153964514903996
-0.013581852848049828
-9.361679065385069e-05
-0.0002954678063570737
0.0006614310990835049
-0.0007259945963929803
0.00025934773591450755
0.00035951918880663866
0.0003765732948716579
-0.00030105979429961995
0.00034990073702040835
0.00037514463303548975
0.00022991926182200866
0.00040025507356685744
0.0003639984741788269
0.0002503149183974127
0.0003649022400753262
-0.0002944102014802946
-4.5358252914581336e-05
0.00039723885938993585
-0.0006147631851977329
-0.0005759602293531914
-0.0035631796947694335
0.00037384810421438796
0.00019074872109115995
0.0003874658012918634
0.0002904562348923292
0.00039610417410201404
0.0006214591820629542
0.00021795960508537188
0.00037017316342628353
-0.0002706319687766934
0.0002651232186348518
-0.00022840625034601977
0.0003647092610457647
-0.0004608977478124822
-0.0002544638154078068
0.0003693340205403194
-0.003879536910707193
0.00018376265366139898
0.00040562251129042787
-0.00016734445463338033
0.0003238180346345674
-8.733161004117099e-05
0.00010788477274825117
8.497258615182602e-06
5.8681040569275115e-05
-0.00036974254269140424
0.00036862292079489
0.00031082425678635663
0.0003492731806745591
0.0001107992537911004
4.4922348957708366e-05
0.00014696767750530676
-0.013087989079035967
-0.00029624457060737773
0.00032551910653549866
0.00027792671856000773
0.00010560240745155235
0.00020404689482723858
0.00018536632592428893
-0.00023584255285476026
0.00015915246786173828
0.00010979418512772969
0.00011078455383420783
7.278005976878087e-05
0.00022160346178818932
-0.00018474794465015974
-0.00023092038849917092
3.8397173132683956e-05
0.01377342545297556
-4.053406213492795e-06
-0.00026304107331717117
-0.0001405574433100463
0.0002969958488718421
-9.729543936132983e-05
-0.001853390242991329
-1.859551811464577e-05
0.0005963471257667686
-4.686053401543766e-05
0.0039100751157443376
-8.467527797517768e-05
0.0003323027013613185
-0.00012390085529374165
0.0003872936272206829
-5.3419783910564775e-06
-0.00023803294187788127
-0.00017580847956826762
0.00377026286340663
2.934356078671685e-05
-0.001106183804401736
-0.00021587045574602363
0.000499517594850132
5.4133072365412245e-05
-0.00015565738954353533
-0.0002461187694299934
0.0006391238406321032
7.489009771673249e-05
3.1836913335838605e-05
-0.00026946799147818613
0.0029214492809560466
8.845808720014185e-05
-0.00027204089625067494
-0.00028827623850261215
0.0008127897726915224
0.0001002924230636574
-0.0002765851131975528
-0.00030371094311758143
0.0010397658416883072
0.00010728502765542454
0.0001463985707986572
-0.00031660203580626076
0.002026469644783367
0.00011239723304847211
0.0003291977305672266
-0.00032862601877875063
0.0013003655673740635
-0.00035068634091941993
-0.00030900215738229205
0.00011828566129762874
0.0017141653912819443
-0.00032882713298431894
-0.00028871004888083885
0.00010997089527212025
-0.0020395727187116713
-0.0003588206207383347
0.00011283248322899063
0.00010681129536666748
-0.0002703974176154313
-0.0003536457107066998
-0.0009186700780751913
-0.00036002553447384033
0.0015883039855802837
7.948415321783265e-05
0.000695480022563056
4.991103085968269e-05
0.0018316380358201652
-0.00033063317604260393
0.0003069510979195273
5.184822599416584e-06
-0.002124146335913559
-5.27818042745192e-05
-0.0014407430146730852
-0.00012185032655490215
-8.380372791110154e-05
-0.00019758922156730836
-0.0002998949054545371
-0.00027188770914665325
1.037561858431734e-05
0.0006318149861348227
-0.0008250568461132272
0.0005205429740982828
0.00030386835956086063
-0.0010940538074709933
6.916160800957029e-05
-0.00010207986752927849
-0.00029880615595119964
0.0005741185402079838
-0.0006625849258308656
0.00020355831898403448
0.0003168181238338742
0.0003301171136161614
-0.0003042496280569123
0.0005112510232990336
0.00032953164508114967
0.00020140080617429354
0.0003570528339417921
0.00048713224024890094
4.120819007495829e-05
0.000332693058996011
-0.00029754881146272857
-5.520688110592421e-05
0.00035739617603676774
0.00033189990852684905
-0.0005313351681792901
-0.0011291651329775618
0.0003371301227734043
0.0002067953728390658
0.00034113088368769055
0.00024387910072834172
0.00035058814205538106
0.00058174950293903
2.5229465015159464e-05
0.0004514085935120622
-0.0002739507111779165
0.00027218000088937507
-0.00023193320047952095
0.00040238786044390984
-0.00042723122893797625
-0.00028320662372954163
0.00033793921762259436
-0.0010908790125045054
1.87157251681637e-05
0.00036921682314900253
-0.0001712246491092105
0.00029547458333391535
-9.216447830872811e-05
8.15034246708466e-05
1.911741172460514e-06
4.398493150665931e-05
-0.0003433237197190087
0.0003516997485608126
0.00028510838409277387
0.0003509416739415806
0.00010164464930362715
0.00019554940733512003
1.6841673623485795e-05
0.0036763290125304605
-0.0002744467563560178
0.0003204089935793161
0.00025896028007878815
8.864459895003279e-05
0.00019074424031618298
0.00016096397807338595
-0.00021718998517490743
0.00013883261068449573
1.538924194628417e-05
0.00013406535915302782
1.4939451001198244e-05
0.00019630980141490547
-0.0001682748852322814
-0.00026061642575621547
1.1115638973910354e-05
-0.0034527641090335123
-2.6051893162419802e-06
-0.0002733878800536793
-0.000125582311833498
0.00026518727922591513
1.0895667478157477e-06
0.0005246757371231012
-3.4490451986629077e-05
0.0011308424683155029
-3.633138638857917e-05
0.0005332627716221104
-6.249901315444003e-05
0.0003463785148984777
5.9193006796911686e-06
0.0003223923313437122
-0.00010501275880882901
0.0012348050724727852
4.0197894673142505e-05
-0.0009055283504989476
-0.0001414175320234444
0.00044665737097368855
6.456078982308697e-05
-0.00017671128617195267
-0.00017180443472321027
0.0005702873729009606
8.507037839830565e-05
5.448588296318999e-05
-0.00019754181406867537
0.00190242480568439
9.844463816363075e-05
-0.0002998998835597273
-0.0002196092410340107
0.0007225054764345621
0.00011010131135263232
-0.0002865878271220991
-0.0002389987735743208
0.0009120327224278122
0.00011705624154256671
0.00012422451752108014
-0.00025627690512490075
0.0015530974861246748
0.00012202382162949203
0.0004976835031116159
-0.0002730018868499637
0.0011257979972946603
-0.00029954235985088387
8.299662775915525e-05
0.00012779209668064274
0.001403274130939493
-0.0002824922342474153