# vtk DataFile Version 1.0
GRUMMP topologically 2D mesh
ASCII

DATASET UNSTRUCTURED_GRID
POINTS 4142 float
  0.9902132100051211  -0.0013897599745845   0.0000000000000000
  0.9878682672001325  -0.0017209544766007   0.0000000000000000
  0.9922830260938109  -0.0010965337451688   0.0000000000000000
  0.9852627687065505  -0.0020876945602550   0.0000000000000000
  0.9824126515147726  -0.0024873693035198   0.0000000000000000
  0.9941016532545700  -0.0008382294190312   0.0000000000000000
  0.9793229395886266  -0.0029189889321549   0.0000000000000000
  0.9759912936709813  -0.0033826574903297   0.0000000000000000
  0.9957253756688895  -0.0006072067599891   0.0000000000000000
  0.9724158418644283  -0.0038783672872607   0.0000000000000000
  0.9972114818934485  -0.0003956828894990   0.0000000000000000
  0.9685983419668763  -0.0044053177853816   0.0000000000000000
  0.9986172604849257  -0.0001958749290171   0.0000000000000000
  0.9645418982154840  -0.0049624143705746   0.0000000000000000
  0.9602493276520160  -0.0055486932126648   0.0000000000000000
  1.0000000000000000   0.0000000000000000   0.0000000000000000
  0.9557225436143375  -0.0061636003738353   0.0000000000000000
  0.9986172604763917   0.0001958749302285   0.0000000000000000
  0.0136778115501445  -0.0198442283865115   0.0000000000000000
  0.9509632892996972  -0.0068066585239019   0.0000000000000000
  0.0111799405480040  -0.0180409152078963   0.0000000000000000
  0.9972114818757430   0.0003956828920181   0.0000000000000000
  0.0164236219435115  -0.0216216850259729   0.0000000000000000
  0.9459737546847580  -0.0074771440326796   0.0000000000000000
  0.0194159763686392  -0.0233724637256901   0.0000000000000000
  0.0089312659290954  -0.0162123970812813   0.0000000000000000
  0.9957253756403164   0.0006072067640564   0.0000000000000000
  0.9353156997544615  -0.0088958032333210   0.0000000000000000
  0.0226532123065557  -0.0250954152174871   0.0000000000000000
  0.0261336316774566  -0.0267893559859237   0.0000000000000000
  0.0068429846519911  -0.0142695304151425   0.0000000000000000
  0.9237713702124288  -0.0104115615140689   0.0000000000000000
  0.0298554003449755  -0.0284531869488138   0.0000000000000000
  0.9941016532123735   0.0008382294250309   0.0000000000000000
  0.0050308200222286  -0.0123013782195995   0.0000000000000000
  0.0012596550434314  -0.0062543845982477   0.0000000000000000
  0.9113626015789812  -0.0120184565864932   0.0000000000000000
  0.0338165365583016  -0.0300859006297539   0.0000000000000000
  0.0005600587198625  -0.0041872521188657   0.0000000000000000
  0.0034956879705714  -0.0103096477045821   0.0000000000000000
  0.0380150486067802  -0.0316864834866382   0.0000000000000000
  0.0001400674572995  -0.0020989425108620   0.0000000000000000
  0.0424489169588349  -0.0332538061244847   0.0000000000000000
  0.8981160449036193  -0.0137076729882106   0.0000000000000000
  0.9922830260341767   0.0010965337536290   0.0000000000000000
  0.0022384105171692  -0.0082946477552229   0.0000000000000000
  0.0000000000000000  -0.0000000005380880   0.0000000000000000
  0.0471161050109934  -0.0347866680569130   0.0000000000000000
  0.8692172420003259  -0.0173025512123363   0.0000000000000000
  0.8840586048664243  -0.0154712341935952   0.0000000000000000
  0.8536242589802903  -0.0191927756559575   0.0000000000000000
  0.0520144653095357  -0.0362838744017245   0.0000000000000000
  0.9902132099234322   0.0013897599861408   0.0000000000000000
  0.0001400673054027   0.0020989413744649   0.0000000000000000
  0.0005600583994229   0.0041872509286527   0.0000000000000000
  0.0089312642537700   0.0162123956290166   0.0000000000000000
  0.0068429832427153   0.0142695290019493   0.0000000000000000
  0.0022384098100130   0.0082946464730838   0.0000000000000000
  0.0034956870455263   0.0103096463775504   0.0000000000000000
  0.0050308188630767   0.0123013768482443   0.0000000000000000
  0.0111799386902237   0.0180409137864515   0.0000000000000000
  0.8373107726191357  -0.0211334926288444   0.0000000000000000
  0.0624935355792051  -0.0391666954139108   0.0000000000000000
  0.9878682670932252   0.0017209544916756   0.0000000000000000
  0.0136778095139640   0.0198442269960848   0.0000000000000000
  0.8203090273240524  -0.0231167391866414   0.0000000000000000
  0.0738633143603066  -0.0418930499584099   0.0000000000000000
  0.8026551811301268  -0.0251343400368426   0.0000000000000000
  0.9852627685719384   0.0020876945791685   0.0000000000000000
  0.0861021386417074  -0.0444536409739349   0.0000000000000000
  0.7843840873894279  -0.0271778197795966   0.0000000000000000
  0.9824126513500548   0.0024873693265746   0.0000000000000000
  0.0991843265815398  -0.0468392532814141   0.0000000000000000
  0.0164236197329729   0.0216216836667636   0.0000000000000000
  0.7461418339277840  -0.0313078737465108   0.0000000000000000
  0.9793229393907722   0.0029189889597428   0.0000000000000000
  0.1130825286139299  -0.0490420520078216   0.0000000000000000
  0.7058944105034720  -0.0354399888107516   0.0000000000000000
  0.1277704618123611  -0.0510562827506626   0.0000000000000000
  0.1762568929815641  -0.0559042078350805   0.0000000000000000
  0.0194159739879911   0.0233724623981675   0.0000000000000000
  0.6639684116827792  -0.0395008026994765   0.0000000000000000
  0.1937838883744062  -0.0571083155282771   0.0000000000000000
  0.9759912934368556   0.0033826575228533   0.0000000000000000
  0.2119350336566717  -0.0581032139582273   0.0000000000000000
  0.1432165586985055  -0.0528747491799113   0.0000000000000000
  0.1593891568184451  -0.0544918670991958   0.0000000000000000
  0.0226532097601106   0.0250954139222151   0.0000000000000000
  0.6207078411914361  -0.0434191082996254   0.0000000000000000
  0.5764634620046084  -0.0471137377839725   0.0000000000000000
  0.9724158415910057   0.0038783673250912   0.0000000000000000
  0.2306739249637577  -0.0588890260835713   0.0000000000000000
  0.0261336289695199   0.0267893547234291   0.0000000000000000
  0.5315950381341085  -0.0505057454921963   0.0000000000000000
  0.4864703588817339  -0.0535094604401647   0.0000000000000000
  0.4414549182767121  -0.0560390634426787   0.0000000000000000
  0.9685983416513994   0.0044053178288238   0.0000000000000000
  0.2697570606452168  -0.0598365819607799   0.0000000000000000
  0.3969170552729402  -0.0580119076690758   0.0000000000000000
  0.0298553974799863   0.0284531857194991   0.0000000000000000
  0.9645418978552561   0.0049624144199126   0.0000000000000000
  0.3107174127482247  -0.0599745523566999   0.0000000000000000
  0.3532197168655907  -0.0593474025151865   0.0000000000000000
  0.9602493272443249   0.0055486932681955   0.0000000000000000
  0.0338165335406938   0.0300858994339835   0.0000000000000000
  0.0380150454409591   0.0316864823247920   0.0000000000000000
  0.9557225431564565   0.0061636004358678   0.0000000000000000
  0.0424489136491938   0.0332538049970267   0.0000000000000000
  0.0471161015618897   0.0347866669642923   0.0000000000000000
  0.9509632887889385   0.0068066585927330   0.0000000000000000
  0.9459737541185675   0.0074771441085412   0.0000000000000000
  0.0520144617255517   0.0362838733443521   0.0000000000000000
  0.9353156990700551   0.0088958033238094   0.0000000000000000
  0.0624935317401540   0.0391666944281135   0.0000000000000000
  0.0738633102849253   0.0418930490455120   0.0000000000000000
  0.9237713694002159   0.0104115616199952   0.0000000000000000
  0.0861021343485112   0.0444536401350998   0.0000000000000000
  0.9113626006299211   0.0120184567085017   0.0000000000000000
  0.0991843220904188   0.0468392525175462   0.0000000000000000
  0.8981160438094651   0.0137076731266115   0.0000000000000000
  0.1130825239435962   0.0490420513187447   0.0000000000000000
  0.8840586036192291   0.0154712343488011   0.0000000000000000
  0.1277704569818227   0.0510562821360933   0.0000000000000000
  0.8692172405930260   0.0173025513845012   0.0000000000000000
  0.1432165537277111   0.0528747486397878   0.0000000000000000
  0.8536242574066383   0.0191927758449732   0.0000000000000000
  0.1593891517258480   0.0544918666322352   0.0000000000000000
  0.8373107708732270   0.0211334928345504   0.0000000000000000
  0.1762568877862003   0.0559042074398506   0.0000000000000000
  0.8203090254010921   0.0231167394087162   0.0000000000000000
  0.1937838830953411   0.0571083152030304   0.0000000000000000
  0.2119350283118140   0.0581032137003017   0.0000000000000000
  0.8026551790260408   0.0251343402747870   0.0000000000000000
  0.2306739195716207   0.0588890258904683   0.0000000000000000
  0.7843840851007032   0.0271778200327233   0.0000000000000000
  0.2697570552113356   0.0598365818878674   0.0000000000000000
  0.7461418312636445   0.0313078740273454   0.0000000000000000
  0.3107174073396524   0.0599745523895525   0.0000000000000000
  0.3532197115457904   0.0593474026374948   0.0000000000000000
  0.7058944074605978   0.0354399891145804   0.0000000000000000
  0.6639684082655058   0.0395008030201497   0.0000000000000000
  0.3969170500997217   0.0580119078642495   0.0000000000000000
  0.6207078374111498   0.0434191086291270   0.0000000000000000
  0.5764634578798972   0.0471137381129498   0.0000000000000000
  0.5315950336908907   0.0505057458089039   0.0000000000000000
  0.4864703541532008   0.0535094607315534   0.0000000000000000
  0.4414549133024901   0.0560390636939180   0.0000000000000000
  0.9901595609719056  -0.0023783411927147   0.0000000000000000
  0.0326649145266362  -0.0334200843455863   0.0000000000000000
  0.9878329678703356  -0.0027145673674890   0.0000000000000000
  0.0733998606732272  -0.0440344159407381   0.0000000000000000
  0.9922372924577029  -0.0020726951087579   0.0000000000000000
  0.8846838814295012  -0.0208009306521702   0.0000000000000000
  0.9852539181750185  -0.0030832573491977   0.0000000000000000
  0.8205556230767344  -0.0253024477924150   0.0000000000000000
  0.9824277530968584  -0.0034836508822686   0.0000000000000000
 -0.0022154120548041  -0.0049277430541563   0.0000000000000000
[...]
POINT_DATA 4142
SCALARS continuity float
LOOKUP_TABLE default
0.00035633042589332795
0.0003155857933837071
0.00039131806321820474
0.00028223032622520474
0.000251575832262247
0.000511720624796643
0.00021851894205262082
0.00018366698188015729
0.0006517638393655433
0.0001453409994382955
0.0001270534607171473
0.00010358700964102467
0.005962722404175407
5.668584175413269e-05
8.520710438655817e-06
2.5956596779015853e-05
-4.320864149613231e-05
-0.006514853215974489
0.016507744197711973
-9.75265891681993e-05
0.016165138498199446
0.00015264084336662185
0.016669371923428506
-0.00017374623962257863
0.016679534723222894
0.015589682812111007
-0.0003769600472741503
-0.00028248337484543723
0.016571530590673834
0.016366179281367736
0.014744647418393578
-0.00040725005271993476
0.016086569277059443
-0.0002519043327920947
0.013574247392065135
0.007933369809676773
-0.0005332637459521241
0.01575070049979302
0.005384838213867066
0.01205816322566298
0.01537255761554226
0.002625150060181847
0.014959502398123378
-0.0006545844399312817
-0.00012741877625186996
0.010174513879814991
-0.00022379116111827295
0.014516534312464404
-0.000897317521398805
-0.0007705173739542
-0.001013290100154426
0.013956829476874912
-9.66516052487986e-05
-0.0029982955032690087
-0.006508252829458991
-0.015579933055477838
-0.01477976875862397
-0.009637757901536892
-0.012235053214521835
-0.013668137163089442
-0.01612621726185963
-0.0011533270333767733
0.013143390259599768
-5.5456375636909164e-05
-0.0164351579310572
-0.001262830066605852
0.012210921183421547
-0.0014099617272234305
-2.3426997206586684e-05
0.011279421227554778
-0.001567376678078423
9.460792057625965e-06
0.01037033448207193
-0.01656580328917407
-0.0017723148935737505
3.9994852667011525e-05
0.009487412029707116
-0.001965486018339495
0.008631066264107784
0.006219428158441348
-0.01655222578841906
-0.0021458291283768752
0.005465888703335145
7.481027083158194e-05
0.004740763281938331
0.007801347402007246
0.006998306480022474
-0.016420398991986516
-0.002288716901261371
-0.0023461570823400794
0.00011310562931315741
0.0038668205911334564
-0.01619576609131849
-0.0022747231092544846
-0.0020330826499582832
-0.001578720119004005
0.00015602075822004755
0.0026530289635274132
-0.0008705135079789044
-0.015900488920137356
0.0002008910094406019
0.0013184238529041251
0.00010724449466749352
0.00025158812069032597
-0.015551064409271337
-0.015161476979257306
0.0003043621974222707
-0.014738225187704774
-0.01428195182977955
0.00035927907390974817
0.0004439165153097223
-0.013721740614973223
0.0005501608105630476
-0.012893111576190417
-0.011957778789752436
0.0006731843646787148
-0.011022601097037114
0.0007987921667294981
-0.010113056865564548
0.000909990418588995
-0.009231478487660438
0.001039511435846967
-0.008377860049159259
0.001149527455663192
-0.007551777441529648
0.0012850112994762942
-0.006752816759232162
0.0013922597668123492
-0.005978166562073319
0.0015313299591863936
-0.0052281632407745636
-0.004504307555024661
0.001641485349643818
-0.0036400193740797958
0.0018167985129480338
-0.002427858832955409
0.002020236930394917
-0.001101317002057176
0.0001079005716301139
0.002204689704883229
0.002375611592514597
0.001084572418515155
0.002511452922961819
0.00256640425152597
0.0024924496758683117
0.002248275136039475
0.0017926548396053539
0.00035741035625595747
0.015351659659366045
0.00031086516873146973
0.012282239324365646
0.00037173125221349915
-0.0008181282365182353
0.0002787325257744464
-0.0012701573667789905
0.000247651262146074
0.0037824956295718372
0.0005077878339191339
-0.01583842214611552
0.00021449934833949193
-0.0004613797502964568
0.0001796737007767128
-2.8614620028864887e-05
0.0004057164491924913
0.00941076255854582
0.0001413249013370974
0.013194636937753074
0.00040990193444677897
-0.0009402112103048415
9.95253905691184e-05
-0.0011616087230826818
-0.0007518407139396143
0.015102100553013328
5.252610565969546e-05
-0.015352252445106677
4.418167199022359e-06
3.722024850753447e-05
0.00041029865420474574
-0.00038507052818152483
-0.00017282640678736215
6.0156527173049034e-05
7.633120802001655e-05
7.021570256011271e-05
0.0002984937084708799
-4.739750577365711e-05
-0.012294600539690408
0.0011178477075255186
0.0017153632243445153
0.016458462925881705
-0.010580831783143419
-0.00010173248262167309
0.014076668883748365
0.016088338086978342
-0.008393171514704709
-0.00021404435019029133
0.014791906716363757
0.016637104629046426
-0.013620373110998863
-0.00017825322728677793
0.004736629625234186
0.01665829095738275
-0.014624878761418445
0.015478340759571102
-0.0006826929987816866
-0.00011233865879770792
-0.005334922726454404
-0.00028643924921237793
-0.00045079312030436473
0.016556815844899923
-0.0028193209354028504
0.016356565264776732
-5.324766611004486e-05
0.014576999208091341
-6.79625451055385e-05
-0.00041081830771773624
0.006025545340547982
0.016080015196023686
0.013983872362117244
-0.0002558411464306366
0.0076759649952745914
0.013348468627950855
-0.0010224319622571007
0.0076065022033685635
0.0067832815801258895
-0.0005367745954939618
-0.0007812314728271851
0.015746370132380054
-0.00041737201745246504
0.0051089951739121415
-0.0009072939553091092
0.0117729282046471
0.005351001392391281
0.015369778071902228
0.01451923169746143
0.0024446186817805807
0.014427615052141227
0.014957739799801226
-0.00036311305218077796
-0.0006579102563407304
-2.3625746024345616e-05
-0.00010831291434123858
0.008690205462643834
0.009848865113425299
-0.0009211877012768376
-0.00028829831821415314
-0.00011017092869996547
0.014514459198101935
-0.00046392364325552587
-0.0009002238404731091
-0.0006659494059996993
-0.0007737190366521517
-0.0007965994897166939
-0.0010159599318932942
0.01494041433553545
0.013956596773127874
-0.0007067470198069134
-9.894571521225287e-05
0.0020411770395832546
-0.0030118573268080625
-0.0010347978381491853
-0.006088956192729412
0.01532228399159608
-0.015492048904103373
0.004191484137943598
-0.014634074983421327
0.01055451121734068
-0.00943793284821172
0.01394452499928225
-0.01191094328650312
0.004372009748193643
-0.013457478473656179
0.014345697547798594
-0.01606973040183347
0.015658536640728547
-0.0011558806090667844
-2.922435745714945e-05
0.013142427583196467
-0.0005453277680738533
-5.095806903423353e-05
0.013435278970327902
-0.01640311139626647
0.006609380792775146
-0.0012652186697254969
-0.0026072112962485096
0.012211735678091867
0.012159083662433616
-0.0014112509823861346
0.0014357975212135911
-2.0140885208163085e-05
-0.0001644531282215353
0.011280100295259577
-0.004778696867142758
-0.001570653267533272
0.015940412318177718
1.3333272558020445e-05
8.450557768272635e-05
0.010371006417938079
-0.0004201328233728353
-0.016548241745784086
-0.013479150475231893
-0.0017738276246118184
0.013479851769567069
4.391965374674871e-05
0.014554693201860876
0.009488205332233315
0.016151231497188466
-0.0019672691451406033
-0.01242076840523376
0.008632006336391966
0.01626878110557179
0.006221290728980844
-0.0009589397412775806
-0.01654301950766999
-0.00029707082648401965
-0.002147375553974335
-0.007387596007524325
0.005467969052952104
-0.0004156176041502986
7.880350190693517e-05
0.008392230920678872
0.0047402613968479815
0.014520792344344767
0.007802458932937575
-0.00938290217644181
0.006999782346986667
0.01626865245223868
-0.016415984313720294
-0.00044747574105347533
-0.0022900545656646372
-0.00019078003075653896
-0.0023472464674150926
-0.011072526397341964
0.00011703779422965372
0.016125285289580453
0.0038715342632188524
0.0032686876474918173
-0.016194763901812962
-3.294518128200521e-05
-0.002275517747337085
-0.01429227346690314
-0.002033543395538181
0.015281956004376115
-0.001578651300847555
-0.0008410653574978426
0.0001599818595738314
-0.00011497988827480564
0.0026534237613011053
-0.0011723577985455129
-0.0008700600008042085
0.015805971945546105
-0.015901453301163153
0.01469990623584395
0.00020492456941213313
-0.0022659692617031115
0.0013197180200924718
0.01321751331539681
0.00010817764464911342
-6.161017752496427e-05
0.0002556955807773175
-0.0007505438342088225
-0.015552665619488447
-1.081911022816811e-05
-0.015163514885582428
6.4077492386416806e-06
0.0003084841296433909
3.620351870592195e-05
-0.01474064147916616
-0.0005897889145147592
-0.014284403337623717
0.0027513515828007447
0.0003634330706729381
-0.014888798314047722
0.00044840134180035356
8.209256922868742e-05
-0.013722030040110368
-0.0010650637151604907
0.0005540606457528026
0.00028080075589699224
-0.01289479469298119
-0.001279120778635445
-0.011960209131312346
0.00012270392925618315
0.000676758891342538
0.005061263555681024
-0.011024481034623402
0.0007062413554086519
0.0008023272499867363
0.012353233060130683
-0.01011459013509035
0.00016013837551887315
0.0009132578283592938
-0.000351426434963189
-0.00923287304976097
0.00019412305580214994
0.0010426767994142175
-0.0014228566772345698
-0.008379226592193971
0.000426341247424707
0.0011524628140478206
0.00984374124413641
-0.007553351206374421
0.00022645593517921017
0.0012877408924433966
3.6120062649280315e-05
-0.006754523198360859
0.00025609818631446306
0.0013947933547055048
0.013147432598598893
-0.005980233268032331
0.0003745660938689593
0.0015337160610855373
0.0114562722897063
-0.005230419794425543
0.000288556606690485
-0.004504075445059029
-5.0438606009960265e-05
0.001642728191486459
0.00032691271096870053
-0.0036444952876363707
-0.001579655777735764
0.0018201261596556798
0.00018377225466836576
-0.0024282785946667857
0.012840450786611604
0.002021646367851501
-0.00015186457572662548
-0.001102686370269594
6.78031597720591e-05
0.00010696480404313624
8.580982744740407e-05
0.002206463193959643
0.014777318527323356
0.002377199812999835
0.0003320848516907343
0.0010840598232154822
0.010565459167819783
0.0025127352270824083
0.0003377621099117339
0.002567471525342119
6.72716524718342e-05
0.002493235594016498
0.01150708078508667
0.002248670573648237
-0.015296004086183788
0.0017925956669785073
-0.00018020552138708407
-0.0014154072808936751
-0.000733771876186182
2.148640803142097e-06
-0.0005633939605244196
0.011357552285153361
-0.0010509991470284846
-0.001574314996615014
0.005783432664771311
3.4300319006413536e-05
0.004411376698622214
0.010451140917956367
0.01094626883623745
-0.01612003638939983
0.01369280954706119
-0.0017756615980661114
-9.618938404344761e-05
6.389077033541525e-05
0.0136280850906806
0.009568732564193268
0.015531528492767153
-0.001967393850092285
1.7698925260799136e-05
0.008711568620897786
-0.0004396728625233608
0.006294194152672101
0.012673598444293957
-0.01623070543668701
0.012250095609497384
-0.0021453863840851495
-0.0023876588577954046
0.00553783066841555
0.015626527561228752
9.797021488766906e-05
0.001207447457956109
0.004805736285315125
0.015619118097828838
0.007880318071379913
-0.004285438732323374
0.007075309610693157
-0.0003188316665525437
-0.01620003222500764
0.0001444455766575027
-0.0022853700327135186
-6.131732351458635e-05
-0.0023394460134568674
-0.012314456026426166
0.00013527332859422558
0.01332373249118075
0.003933125192805068
0.013768383698840569
-0.016055346130219642
0.01548783119383734
-0.0022638853006079853
-0.0015828275904749202
-0.002017115260545434
-0.0002149448701261411
-0.0015564814023302303
-0.01125298803613178
0.00017715261162809388
0.015216617581155783
0.0027072526818875914
-0.0009624602012619988
-0.0008409400934652176
-3.0731029246105376e-05
-0.015821436070430885
-0.006518828390648947
0.0002208992326418234
0.01415613613946385
0.0013658549154556136
0.00751926919601493
0.00014539245386222354
-0.0001407516359245672
0.00027065370071194624
-0.008315727740249848
-0.015518610254198189
0.01477935303177511
-0.015164602160695505
-0.00042371320595252575
0.0003222576233940527
0.0003223175931589591
-0.014767293901196054
-0.009927440891365977
-0.01432863548035334
-8.822543790679766e-05
0.0003761205720608609
0.002840878231299627
0.00046019975545319284
-3.8785848876182877e-05
-0.01378350782159764
-0.013152042433271694
0.0005638224233929054
6.783231142976597e-06
-0.012976236436551145
-0.0008513377951694834
-0.01205496858377481
7.806588919148505e-06
0.0006854142152106818
-0.001185688462243143
-0.011121941558234072
5.135319090771206e-05
0.0008102634892079734
0.013855101823717648
-0.010211019193705276
0.00027710895834554504
0.000920772452188381
0.013083365078160908
-0.009326952210774364
9.066944119880427e-05
0.0010496990435524258
-0.0007255619930541936
-0.008470105920018562
0.00034023409221409896
0.0011588953771252534
5.041894292084251e-05
-0.007640567314412425
0.00012692425912726426
0.0012936065985056544
-0.0006208517020820128
-0.006838098954580271
0.0001598753405818383
0.0013999947473500127
-0.013789288159080395
-0.006059889555134756
0.00035555145303948886
0.0015382236710742491
-0.0010610631549907228
-0.0053060114551369
0.00019168013558997616
-0.00457446166725003
-0.0012892604329593758
0.001646483511528848
0.00022030480810626062
-0.003710064339421068
0.004453887757884223
0.0018232933967633545
0.0003147978377543804
-0.002485255649223706
0.012327267677774693
0.0020229138547573937
0.00025183993472010943
-0.0011513241285474492
0.010828028277064842
6.780162821255051e-05
0.00028574605383410766
0.002205993270038689
-0.0014301031554162641
0.0023745374384550265
0.00012551867504965487
0.0010533846523180536
0.008890972360976596
0.002507409567812956
9.024126155440927e-05
0.0025588895421894678
8.081738025791323e-05
0.0024807085134709765
5.7405402804789113e-05
0.0022312677633581804
0.01242888251530912
0.0017691591320549264
3.1238757585125636e-06
-0.00046872671438470546
-0.001777789409246354
0.011954374350986684
9.677262056695031e-05
0.01110275760385525
0.009691771078550761
-0.0021725354892055226
-0.001965593627954454
0.01477510372143115
0.008839365601165453
0.0010147892613384523
0.0064247678891279185
0.014679672138958504
-0.015540039788634382
-0.0038475323289595947
-0.002138708072634014
-0.00035094196943639874
0.005665887484409951
0.00016654495115381396
0.00013000485954349348
-0.0001792994457077841
0.004930626854814763
-0.011262991890089313
0.00801044448621772
0.012160372121913003
0.007206327912855371
0.012959365369836422
-0.015640938196990774
0.014472658695953955
-0.002272789634554799
-0.010213638481860072
-0.0023198801398231095
0.014140143572147443
0.00016629638816516082
-0.0009165135723998057
0.0040516582950970445
-6.777021062169293e-05
-0.015621504460409443
-0.005792562712528626
-0.0022357963202299827
0.013003878336775309
-0.001978625118379606
0.0067372443809798075
-0.0015054301863476436
-0.00017882524702135375
0.00020698738152005256
-0.0074158503422596805
0.002817617744638444
0.01365677398717828
-0.0007753282458157863
0.002162980478839782
-0.015500413173999339
-0.0006310292373173866
0.00024925739158459555
-0.008928730264025603
0.0014635345167402756
-0.00012793141711080392
0.00022700826094377262
0.0024664921378123807
0.0002975613949121442
-8.04134718412491e-05
-0.015295565347313342
-0.012102847278585504
-0.015023352011566835
-3.679671373800164e-05
0.00034768545553832226
-0.0008160278552655459
-0.014692160205716188
0.0009513145246951828
-0.01430523086465451
-0.0011951331827287383
0.0004005356557085131
6.22218717882768e-06
0.0004832220877828642
1.4748022412137325e-05
-0.013805649220180743
0.013031391219957725
0.0005842247391738817
0.0003253797483738848
-0.013053504633436191
0.012661355865969287
-0.012172558571987364
4.405206207137468e-05
0.0007036645208339691
-0.0005950329903908728
-0.011260013811833357
0.00045065244007739174
0.0008272643484394707
9.81898735230585e-05
-0.010358461163276053
7.938442930865908e-05
0.0009364105611072732
-0.0006438474231041442
-0.009477719545110624
0.0001118261414610333
0.0010640157516464935
-0.012751439981919318
-0.008621328052048065
0.0003088909613109794
0.0011717218052901047
-0.001003024768771479
-0.007790541960761481
0.00014382639411190552
0.001304953723291237
-0.0012933473161431466
-0.0069860144279285065
0.00017226504680152818
0.001409638386485223
0.003916448726414274
-0.00620489827197696
0.0002824793363223802
0.0015462837431272775
0.012051928760515602
-0.005446441244951093
0.00020524304236725283
-0.004709881965651894
-0.0002944644448476489
0.0016529413222953096
0.0002359557726895053
-0.003837497194482528
-0.0014289294758908673
0.001827551467512594
-5.6705600982111644e-05
-0.0026026521397523174
0.008037671177239004
0.00202385363096624
0.0001060662694325676
-0.001254456597303828
0.00012785928148412214
-1.8147381304685774e-05
0.000276277330481033
0.002202917500017051
0.011711674506993125
0.0023665032242063625
0.0003741480418520445
0.0009843514132180516
0.01136308142407525
0.0024934503648483624
-0.0001455953275850187
0.002537631721423506
6.121572608920299e-05
0.0024505854538443873
0.0005165316018851691
0.0021904284296895716
-0.0015746768097026137
0.0017153043411736715
-0.0002505043738533414
0.012126287309378293
0.00011269674095994754
0.013883445831575402
0.010668046844266565
0.00011526252046165103
-0.014254700868184731
-0.0005037506870780743
-0.0017749042107456806
0.011340483502522114
0.00014170845961661565
0.010101238627067287
0.009828582829645684
-0.001966467809705504
-0.001954896889668308
0.01384194046267377
0.008999184925135227
0.0008490009983557127
0.00661884885325392
0.013715063457953869
-0.014571172267936496
-0.003446197008030387
-0.0021187426070114327
-0.0003909630220506387
0.005863653489932824
0.010104673171887448
0.00017506690853150343
-1.4761048079907626e-05
0.0051305323566323115
-0.010315029241005075
0.008185955524228083
0.011136138698945315
0.007392959079183781
0.012246807542674725
-0.014758675181469479
0.0134827910106671
-0.0022416088005620524
-0.009276193610895843
-0.002275131007026588
0.01313112884957815
0.00021064251482037893
-0.0007518873955714483
0.004249647551921214
7.919796673397328e-06
-0.01483643143479225
-0.005150667506377891
-0.0021748059755935818
0.011974999484892012
-0.0018980488367097146
0.00602657418574112
-0.0014019800633401675
-0.000226935300536072
0.0002502726574268592
-0.0066251942431157585
0.0030108868956617977
0.012635023604624977
-0.0006463368192116042
-0.0003912546623059246
-0.014820074319526864
3.50513091162275e-05
0.0002906894970614999
-0.008036823238789587
0.0016424205290143737
-0.0001778256380342135
0.00038242853740074373
0.0021335721003614343
0.00033742757873559255
-0.00013276155549645953
-0.014723647411013981
-0.011162439671755578
-0.014558022048872195
-9.138547639031429e-05
0.0003855323755263787
-0.0006685224596916056
-0.014329456842048928
0.000235952331602312
-0.014037314541153374
-0.0011833613594799098
0.00043628943360020134
-4.9495242720981165e-05
-0.013633337706650438
0.012320039640829889
0.0006140334710663653
0.0002474384319680831
-0.012995822493478968
0.012014581381542218
-0.012215945032255636
-1.2695653891635892e-05
0.0007303440823509571
0.010629800761406419
-0.01137229929068306
0.00027526752446263943
0.0008515081174542685
0.00014344708529672015
-0.010514842912553337
2.3042997623626074e-05
0.0009581986938904246
-0.0006289249768074394
-0.009661284482945495
5.637795377476012e-05
0.0010834794412151953
-0.011827225962350417
-0.008821429910331031
0.0002399967708154968
0.001188581873113101
-0.0008194629098431283
-0.008000890921516117
9.057887458157594e-05
0.0013191779928499385
-0.0012729214879737439
-0.007202819695188339
0.00012046077548394932
0.001420838899324269
0.0034311647638744463
-0.006425053955300401
0.00021819412533434287
0.0015545290638779238
0.011504747094154326
-0.005666695851591837
0.0001545433489073881
-0.004929263289258064
0.0037279525967742967
0.0016580575662314
0.00018229854843652358
-0.00405190265411326
-0.0013999450141089912
0.0018285710937556553
9.676398719154194e-05
-0.0028089677671167476
0.007265417628027437
0.0020186382195901743
0.0001103290044804702
-0.0014436804180539846
0.00017386955753311803
-0.00018169150504778158
0.00012708386833660935
0.002189734663954078
0.011087159229063209
0.002343871011409436
0.00016816847193275072
0.0008488514191351926
0.010933275568716146
0.0024592014704960643
6.272115128643586e-05
0.0024895650226822792
0.00010947844732051411
0.002385799721221175
0.0005579677603229896
0.0021053361040579126
-0.0015335191920311064
0.0016065798967773916
-0.0002953588144031361
0.0115217506392118
0.00016135916498347612