# vtk DataFile Version 1.0
GRUMMP topologically 2D mesh
ASCII

DATASET UNSTRUCTURED_GRID
POINTS 4142 float
  0.9902132100051211  -0.0013897599745845   0.0000000000000000
  0.9878682672001325  -0.0017209544766007   0.0000000000000000
  0.9922830260938109  -0.0010965337451688   0.0000000000000000
  0.9852627687065505  -0.0020876945602550   0.0000000000000000
  0.9824126515147726  -0.0024873693035198   0.0000000000000000
  0.9941016532545700  -0.0008382294190312   0.0000000000000000
  0.9793229395886266  -0.0029189889321549   0.0000000000000000
  0.9759912936709813  -0.0033826574903297   0.0000000000000000
  0.9957253756688895  -0.0006072067599891   0.0000000000000000
  0.9724158418644283  -0.0038783672872607   0.0000000000000000
  0.9972114818934485  -0.0003956828894990   0.0000000000000000
  0.9685983419668763  -0.0044053177853816   0.0000000000000000
  0.9986172604849257  -0.0001958749290171   0.0000000000000000
  0.9645418982154840  -0.0049624143705746   0.0000000000000000
  0.9602493276520160  -0.0055486932126648   0.0000000000000000
  1.0000000000000000   0.0000000000000000   0.0000000000000000
  0.9557225436143375  -0.0061636003738353   0.0000000000000000
  0.9986172604763917   0.0001958749302285   0.0000000000000000
  0.0136778115501445  -0.0198442283865115   0.0000000000000000
  0.9509632892996972  -0.0068066585239019   0.0000000000000000
  0.0111799405480040  -0.0180409152078963   0.0000000000000000
  0.9972114818757430   0.0003956828920181   0.0000000000000000
  0.0164236219435115  -0.0216216850259729   0.0000000000000000
  0.9459737546847580  -0.0074771440326796   0.0000000000000000
  0.0194159763686392  -0.0233724637256901   0.0000000000000000
  0.0089312659290954  -0.0162123970812813   0.0000000000000000
  0.9957253756403164   0.0006072067640564   0.0000000000000000
  0.9353156997544615  -0.0088958032333210   0.0000000000000000
  0.0226532123065557  -0.0250954152174871   0.0000000000000000
  0.0261336316774566  -0.0267893559859237   0.0000000000000000
  0.0068429846519911  -0.0142695304151425   0.0000000000000000
  0.9237713702124288  -0.0104115615140689   0.0000000000000000
  0.0298554003449755  -0.0284531869488138   0.0000000000000000
  0.9941016532123735   0.0008382294250309   0.0000000000000000
  0.0050308200222286  -0.0123013782195995   0.0000000000000000
  0.0012596550434314  -0.0062543845982477   0.0000000000000000
  0.9113626015789812  -0.0120184565864932   0.0000000000000000
  0.0338165365583016  -0.0300859006297539   0.0000000000000000
  0.0005600587198625  -0.0041872521188657   0.0000000000000000
  0.0034956879705714  -0.0103096477045821   0.0000000000000000
  0.0380150486067802  -0.0316864834866382   0.0000000000000000
  0.0001400674572995  -0.0020989425108620   0.0000000000000000
  0.0424489169588349  -0.0332538061244847   0.0000000000000000
  0.8981160449036193  -0.0137076729882106   0.0000000000000000
  0.9922830260341767   0.0010965337536290   0.0000000000000000
  0.0022384105171692  -0.0082946477552229   0.0000000000000000
  0.0000000000000000  -0.0000000005380880   0.0000000000000000
  0.0471161050109934  -0.0347866680569130   0.0000000000000000
  0.8692172420003259  -0.0173025512123363   0.0000000000000000
  0.8840586048664243  -0.0154712341935952   0.0000000000000000
  0.8536242589802903  -0.0191927756559575   0.0000000000000000
  0.0520144653095357  -0.0362838744017245   0.0000000000000000
  0.9902132099234322   0.0013897599861408   0.0000000000000000
  0.0001400673054027   0.0020989413744649   0.0000000000000000
  0.0005600583994229   0.0041872509286527   0.0000000000000000
  0.0089312642537700   0.0162123956290166   0.0000000000000000
  0.0068429832427153   0.0142695290019493   0.0000000000000000
  0.0022384098100130   0.0082946464730838   0.0000000000000000
  0.0034956870455263   0.0103096463775504   0.0000000000000000
  0.0050308188630767   0.0123013768482443   0.0000000000000000
  0.0111799386902237   0.0180409137864515   0.0000000000000000
  0.8373107726191357  -0.0211334926288444   0.0000000000000000
  0.0624935355792051  -0.0391666954139108   0.0000000000000000
  0.9878682670932252   0.0017209544916756   0.0000000000000000
  0.0136778095139640   0.0198442269960848   0.0000000000000000
  0.8203090273240524  -0.0231167391866414   0.0000000000000000
  0.0738633143603066  -0.0418930499584099   0.0000000000000000
  0.8026551811301268  -0.0251343400368426   0.0000000000000000
  0.9852627685719384   0.0020876945791685   0.0000000000000000
  0.0861021386417074  -0.0444536409739349   0.0000000000000000
  0.7843840873894279  -0.0271778197795966   0.0000000000000000
  0.9824126513500548   0.0024873693265746   0.0000000000000000
  0.0991843265815398  -0.0468392532814141   0.0000000000000000
  0.0164236197329729   0.0216216836667636   0.0000000000000000
  0.7461418339277840  -0.0313078737465108   0.0000000000000000
  0.9793229393907722   0.0029189889597428   0.0000000000000000
  0.1130825286139299  -0.0490420520078216   0.0000000000000000
  0.7058944105034720  -0.0354399888107516   0.0000000000000000
  0.1277704618123611  -0.0510562827506626   0.0000000000000000
  0.1762568929815641  -0.0559042078350805   0.0000000000000000
  0.0194159739879911   0.0233724623981675   0.0000000000000000
  0.6639684116827792  -0.0395008026994765   0.0000000000000000
  0.1937838883744062  -0.0571083155282771   0.0000000000000000
  0.9759912934368556   0.0033826575228533   0.0000000000000000
  0.2119350336566717  -0.0581032139582273   0.0000000000000000
  0.1432165586985055  -0.0528747491799113   0.0000000000000000
  0.1593891568184451  -0.0544918670991958   0.0000000000000000
  0.0226532097601106   0.0250954139222151   0.0000000000000000
  0.6207078411914361  -0.0434191082996254   0.0000000000000000
  0.5764634620046084  -0.0471137377839725   0.0000000000000000
  0.9724158415910057   0.0038783673250912   0.0000000000000000
  0.2306739249637577  -0.0588890260835713   0.0000000000000000
  0.0261336289695199   0.0267893547234291   0.0000000000000000
  0.5315950381341085  -0.0505057454921963   0.0000000000000000
  0.4864703588817339  -0.0535094604401647   0.0000000000000000
  0.4414549182767121  -0.0560390634426787   0.0000000000000000
  0.9685983416513994   0.0044053178288238   0.0000000000000000
  0.2697570606452168  -0.0598365819607799   0.0000000000000000
  0.3969170552729402  -0.0580119076690758   0.0000000000000000
  0.0298553974799863   0.0284531857194991   0.0000000000000000
  0.9645418978552561   0.0049624144199126   0.0000000000000000
  0.3107174127482247  -0.0599745523566999   0.0000000000000000
  0.3532197168655907  -0.0593474025151865   0.0000000000000000
  0.9602493272443249   0.0055486932681955   0.0000000000000000
  0.0338165335406938   0.0300858994339835   0.0000000000000000
  0.0380150454409591   0.0316864823247920   0.0000000000000000
  0.9557225431564565   0.0061636004358678   0.0000000000000000
  0.0424489136491938   0.0332538049970267   0.0000000000000000
  0.0471161015618897   0.0347866669642923   0.0000000000000000
  0.9509632887889385   0.0068066585927330   0.0000000000000000
  0.9459737541185675   0.0074771441085412   0.0000000000000000
  0.0520144617255517   0.0362838733443521   0.0000000000000000
  0.9353156990700551   0.0088958033238094   0.0000000000000000
  0.0624935317401540   0.0391666944281135   0.0000000000000000
  0.0738633102849253   0.0418930490455120   0.0000000000000000
  0.9237713694002159   0.0104115616199952   0.0000000000000000
  0.0861021343485112   0.0444536401350998   0.0000000000000000
  0.9113626006299211   0.0120184567085017   0.0000000000000000
  0.0991843220904188   0.0468392525175462   0.0000000000000000
  0.8981160438094651   0.0137076731266115   0.0000000000000000
  0.1130825239435962   0.0490420513187447   0.0000000000000000
  0.8840586036192291   0.0154712343488011   0.0000000000000000
  0.1277704569818227   0.0510562821360933   0.0000000000000000
  0.8692172405930260   0.0173025513845012   0.0000000000000000
  0.1432165537277111   0.0528747486397878   0.0000000000000000
  0.8536242574066383   0.0191927758449732   0.0000000000000000
  0.1593891517258480   0.0544918666322352   0.0000000000000000
  0.8373107708732270   0.0211334928345504   0.0000000000000000
  0.1762568877862003   0.0559042074398506   0.0000000000000000
  0.8203090254010921   0.0231167394087162   0.0000000000000000
  0.1937838830953411   0.0571083152030304   0.0000000000000000
  0.2119350283118140   0.0581032137003017   0.0000000000000000
  0.8026551790260408   0.0251343402747870   0.0000000000000000
  0.2306739195716207   0.0588890258904683   0.0000000000000000
  0.7843840851007032   0.0271778200327233   0.0000000000000000
  0.2697570552113356   0.0598365818878674   0.0000000000000000
  0.7461418312636445   0.0313078740273454   0.0000000000000000
  0.3107174073396524   0.0599745523895525   0.0000000000000000
  0.3532197115457904   0.0593474026374948   0.0000000000000000
  0.7058944074605978   0.0354399891145804   0.0000000000000000
  0.6639684082655058   0.0395008030201497   0.0000000000000000
  0.3969170500997217   0.0580119078642495   0.0000000000000000
  0.6207078374111498   0.0434191086291270   0.0000000000000000
  0.5764634578798972   0.0471137381129498   0.0000000000000000
  0.5315950336908907   0.0505057458089039   0.0000000000000000
  0.4864703541532008   0.0535094607315534   0.0000000000000000
  0.4414549133024901   0.0560390636939180   0.0000000000000000
  0.9901595609719056  -0.0023783411927147   0.0000000000000000
  0.0326649145266362  -0.0334200843455863   0.0000000000000000
  0.9878329678703356  -0.0027145673674890   0.0000000000000000
  0.0733998606732272  -0.0440344159407381   0.0000000000000000
  0.9922372924577029  -0.0020726951087579   0.0000000000000000
  0.8846838814295012  -0.0208009306521702   0.0000000000000000
  0.9852539181750185  -0.0030832573491977   0.0000000000000000
  0.8205556230767344  -0.0253024477924150   0.0000000000000000
  0.9824277530968584  -0.0034836508822686   0.0000000000000000
 -0.0022154120548041  -0.0049277430541563   0.0000000000000000
[...]
POINT_DATA 4142
SCALARS continuity float
LOOKUP_TABLE default
-0.009006958419342218
-0.008176401796703653
-0.009077829177054651
-0.007558013687229248
-0.0068023131019522435
-0.013251273304557335
-0.005998271329468365
-0.005179281293595492
-0.005613610236795394
-0.004385036688426015
-0.0332070394031079
-0.003604221434087027
0.22708852178090466
-0.002915738361612022
-0.0022671070936288364
0.12014124471044733
-0.0017100483420476459
0.22575993109129902
0.001805596457114075
-0.0012221621910144039
0.003546642323538156
-0.02989030946250664
0.000783165542606054
-0.00048000363113003593
2.08062104588229e-05
0.003688929197297754
-0.006231044980794579
0.00029778940970464355
-0.0004724197000762944
-0.0008154464534101262
0.007257397730866438
0.0010128105087658904
-0.0010019513396717222
-0.013500121611712166
0.009615806628400718
0.019376247837730506
0.0016889657684291688
-0.001010756511378141
0.022228972997867545
0.012681146356958252
-0.0009797917732368919
0.023862008157884827
-0.0007953022862172659
0.002363697679921633
-0.009148173984009696
0.0160360281250638
0.02328823185633164
-0.002671129269900755
0.0034262773834070597
0.0028323513142930277
0.003987314230789981
0.004048959453421606
-0.00909240090189245
0.017931400971456117
0.032038050805025656
0.0024053631191418455
0.005131286784535764
0.00335575919074787
0.01765743369571568
0.008703009076944237
0.002772909458286324
0.0046701657046709245
-0.001976701599446243
-0.008252979043862855
0.0014809727066934968
0.005285745826905425
0.0010154983453113816
0.006028946957485148
-0.007633034044074443
0.0014312558403072153
0.006619146062952143
-0.006913722727497069
0.0017228642030844353
0.0007105674244066672
0.00814368747256138
-0.006112056436516339
0.0020351314542343757
0.009325631783950657
0.0022982589009717066
0.002681848180738398
0.00019901773479753728
0.010726611980265458
0.0026692345844036283
-0.005334779491103742
0.0014300063338881057
0.0024919133598630162
0.0026273349455043175
-0.00021940770413401747
0.011708576722134325
0.011788988210837867
-0.004564931699289662
0.0028907296221339757
-0.0004953593849610736
0.010557414012443552
0.00797110056094139
0.004385466646199449
-0.0038485540241664407
-0.0006660408242082736
0.000867446965998002
-0.0006499863828612261
-0.0031816025939077354
-0.0007187128954989464
-0.0011629305124645163
-0.0025869836986724465
-0.0006559285734515373
-0.0006464082195175175
-0.001979191417172777
-0.0004629374893983232
-0.0023532226265548226
-0.0014577314626187893
-0.0008174629486920705
0.0043813142788493445
8.012284540545729e-05
-0.0016490498400097652
0.0013245272552079928
0.0007743585324033229
0.0016727443140748597
0.0014808112583647066
0.0019167717296563285
0.0020543407673365758
0.002209679298168267
0.0027052145887789506
0.002491353933808653
0.0032100126484080967
0.002743978937515143
0.0038834995701286634
0.002956233598319835
0.0043711702671298544
0.00308688808777223
0.005105121125998593
0.003136951408518974
0.0019794543062040984
0.005844498838531796
0.003538475604976474
0.006610465517221549
0.00015852518773909593
0.007850787436448643
0.000265076330231901
-0.00017574699357543683
0.009529342733499332
0.01103230019972111
0.001736130833638449
0.012177198060438417
0.012404560372806777
0.011294843346650848
0.008730113055828818
0.005167868797344171
-0.009594225145938898
-0.007542691937095845
-0.008297267363624575
-0.0026602166266013394
-0.00941261838701413
0.002825611436134119
-0.007610577492504754
0.005303606803116089
-0.006802410478605311
0.013412413379394429
-0.017970573167431485
-0.00391486299463775
-0.005984606277501626
0.008741801792243136
-0.00516063159110005
-0.008283684285885643
-0.01199682350265886
0.005703997829050083
-0.004365100514093304
-0.005790072463609177
-0.054221272543789216
0.003434124974108507
-0.0035840506233210914
0.004690131701859396
-0.15521498955252186
-0.007440801954651576
-0.0028943762509753427
-0.002353674068752811
-0.0022451278793067177
-0.007484920081116726
-0.12183746030719489
-0.12241711225911338
-0.045657581599874396
0.005738380087452485
0.008052393752946101
0.006091926705507488
-0.045393414380421715
-0.0016841900865813353
0.0055806741728202285
-0.1620701954506746
0.014532234442679723
-0.006972355544690766
0.012170325320970747
-0.001195839645608131
-0.0070195127090257325
-0.005088913716632353
0.011964975335813723
-0.05373140551765606
-0.006951331205744107
-0.008029035844713534
0.0016247774697936877
-0.00045289206174213445
0.004020640035561644
-0.008608673929026216
-0.0007430807788404721
-0.003148149113166864
0.0023682809541447068
-0.012414918048348598
0.014023398107245452
0.00032374744373610774
0.011972403202155554
-0.0087438076556514
0.014970281010155392
-0.008621752830326932
-0.008615695104776826
0.0003578055179610385
-0.009350632084733643
0.0010349823653142594
0.005717569841708658
-0.008271698182795656
-0.003301873693681782
-0.018325099927624777
0.008641395776152661
0.0042643313164525
0.004005495213705005
0.017354159344987352
0.007188605474102912
0.001709363890596611
0.0028468737971884457
-0.007747773170972145
0.014177999136072893
0.020578383457949222
0.0034441545389416336
0.008702181396498004
0.004814057441024914
-0.0071486853380134125
-0.006704128107617635
0.022280612114662188
-0.007526009931246252
-0.006322176544157044
0.016902152216612794
0.0023843811977759394
-0.007982603413290122
-0.009442206469401712
0.011785837768181272
0.013218798801056197
0.0034373974776369582
0.021541071905768715
-0.008009323082779648
-0.006489264055172756
0.010183820455068696
0.0034395510681796936
0.0023842217545490332
0.0028410309422129978
0.00283574958545773
0.003999258627333461
-0.006177869783137781
-0.002625894613029496
0.0023496065906151546
-0.009697052839127692
0.01742648510021606
0.018690899895819436
0.004001058216141383
0.01909592500985268
-0.0068470077789408
-0.004170491251617076
0.003407549282465283
-0.0011757496628555424
0.008808615063126937
0.011901246744089811
-0.004521983473550367
0.012850903525973728
0.016416426178936065
0.004095084451426746
-0.006435478639799496
-0.00563973702928219
-0.007110330255560836
0.004680793840702812
-0.009298624046638762
-0.005366770044344096
0.0017094952559700257
-0.008372736717296509
-0.006416106339708119
-0.007139998593364915
0.014437681846456147
0.005296189359357729
0.01284600861453388
-0.0022543850769713284
0.005732493178881053
0.006029930648646151
0.012221922764364982
-0.0076864910913610005
-0.014961369513280046
-0.001286592804802368
0.01075156277561974
0.0066345022756398855
-0.007246637343436052
-0.006913509450298027
-0.007131809953951851
-0.0005244549698378348
0.0010326090732824022
-0.00800158407313363
-0.002877062373828022
0.008146207712297886
0.002925385760717609
-0.006098388314764704
-0.00683683178318294
0.00017054119611052636
-0.00713982514072592
0.009321805909096856
-0.0006234793032989809
0.0007532968629795557
-0.006772278665898912
0.0018031107538637008
0.003435763147670657
-0.008357969839769205
0.0003246470615028425
0.010713996416704917
0.00878418719004753
0.0019582324876688865
0.007381137401490102
-0.005316438654261177
0.00453163043896009
0.0009323400647190385
0.00026554137684701616
0.0012133283823347076
0.00783305263377436
0.001572818888936861
-0.006105102246976521
-0.008420243143706709
0.00752405094220908
0.011691900967250167
-0.0004396909223890772
0.011762959799695176
0.002878810746135144
-0.004541720984159074
-0.0050569279189494835
0.0022132552600449933
0.011305108928013563
-0.008266881964841682
-0.040219331672680464
0.010516285200829627
-0.004248259143581049
0.007910394690234118
-0.0016966232710690704
0.004302739403185916
0.00281490185802539
-0.00382703598750042
-0.0011855667350122927
-0.000987136659050567
0.004692753898995252
0.0007492721949562569
-0.003680466311132622
-0.007896041803359108
-0.006947293321245943
-0.0031603162064883106
0.11820314998955975
-0.0009593787939313294
-0.006758102967518679
-0.0013310431304524326
-0.001675243541727922
-0.0025617722123901436
0.002321235579731878
-0.007396578192205649
-0.002233496415033921
-0.006808692725533057
-0.008403243484190292
-0.001955160880032526
-0.0028780912663058703
-0.0059955139591327325
0.0016690470092821147
-0.006180591210743057
0.12274661318242906
-0.0014313713481746797
-0.005318444412021581
-0.0007879018433947626
-0.00356144368154746
-0.002313527218330594
0.004016776697649205
0.00010637132781577858
-0.04175081110795431
-0.005051413162289046
0.005308014659748307
-0.0019665345891501877
-0.004335852322911898
0.0007952419244687256
0.009546384753311741
-0.0010625714646017937
0.00833444150054921
0.00150070998874929
-0.0038495322363808187
-0.00035061257812903654
-0.005127756086301052
0.0020697946298671305
0.004146553020579487
0.0003288518375665624
-0.005950144010116185
0.0027198049794399997
0.006045044147743303
0.0009283387972737283
-0.014853507947081363
0.0032229387052831186
0.0018425431054170287
0.001448026856977692
-0.006770013008816532
0.003896922679397521
-0.007696988900150087
0.0018868596415939068
-0.0075686418718814395
0.004380882619325574
-0.004602955554923092
0.0021958011754789272
-0.007884910293119067
0.005116126360719925
-0.002981126364141956
0.0024134473861472873
-0.008190674530681468
0.0014717168865966599
-0.011678628479633864
0.005843903019007572
-0.009255526849458547
0.0028470073542378777
0.006661914265271129
0.00662484441671245
-0.0328501676237812
-0.00017452283801892225
-0.006716661263271148
0.007850502020617467
0.04768546749826138
1.7830603141815284e-05
-0.006913204000763521
-0.00035263445357080125
0.04724980027529922
0.00952762899895031
-0.007030781080399621
0.01102045565182906
0.0480918445525378
0.0016111833279203805
-0.0022268728734917112
0.0121596748013058
-0.003533207614676214
0.01237717250987367
-0.008312260852162918
0.011250903057335513
-0.003883246735281571
0.008666691232752233
-0.006030196687540097
0.00507746686106983
-0.004035671121738742
0.006038117841676377
0.002331274574370987
-0.007661603485121782
0.00169134812469355
-0.0017639143056931818
0.004008209640932094
0.006651644475182867
0.011331627021272389
-0.00689998112858556
0.0007042420999484158
-0.0010189163598273673
0.002791307796065236
-0.005057077961420705
-0.004708306611478771
0.00816164385815244
-0.012616073170233852
-0.006073764239483131
-0.006255346115561706
-0.00030096426869631067
-0.00754689800934035
0.009342607751899436
-0.008987288749187323
0.0003239899359495796
0.0010119877209079716
0.0015488187364945164
-0.006482547920862451
-0.005868934059283028
0.00020390075690608078
0.01073737962677963
0.01097258687517822
0.0017759841220803519
-0.007386756064843253
-0.005296714866891485
0.010299444310507373
0.0007193563548535132
-0.007065209704731699
0.0008437958254883255
0.008999991737376976
0.0012652255337613635
0.00030691286421218045
-0.006439394071719883
-0.006460811505720321
0.011713960276758771
-0.002647976051312999
0.011782854232395513
-0.0033880140991804537
-0.004525578446356054
-0.001975634500864504
0.0020952549968880486
-0.006857167197823495
-0.006752730039493215
-0.006617742567600419
0.010534471758074988
0.006692304762160312
0.007925738880371597
-0.00044704195304311574
0.004307351693328319
-0.0011105995913040533
-0.0038103047805005314
-0.005887746644951153
-0.001063929793202093
0.0034534887166261926
0.000744901152556369
-0.022649267019197915
-0.00684641451742895
0.007068472900540205
-0.003143405928489931
-0.0035436773883059706
-0.0009896721503704841
0.0032692282023145244
-0.001353260559687189
-0.0011972945335460207
-0.00254795961107586
0.00587284718047945
-0.00672294798616146
-0.0049621929666267646
-0.006460086711376441
0.006627627523904785
-0.00194321687219253
0.0019820115110943367
-0.0057950870723411565
0.0020707228897436226
-0.006341816177364524
-0.0016868386624145585
-0.0014261680873215398
0.009456881538072757
-0.0007783848501076857
-0.0022410947159309433
-0.0029382187288824694
-0.0049173461947532165
0.00010740072293670099
-0.002880803151487751
-0.005451394727219973
0.0028132441959627832
-0.002345377671656886
0.0030769521423526618
0.000789662551459169
0.0047047357381170985
-0.001519131739094695
-0.0035535587110009847
0.0014959852220266419
-0.0072013958021516986
-0.0008259804038032231
-0.022364204007651056
0.0020684765185740596
-0.006772388829898931
-0.00013612721689007325
-0.004320949863574539
0.002721060113088066
0.0023526286886568614
0.0005062136413349447
-0.0024226114488587495
0.003223787255668043
-0.008142511908324037
0.0010802803935746684
-0.005104473646469247
0.0039019593976277376
0.001637573481843849
0.0015751337781589147
-0.005925397191784101
0.004389366801941307
-0.006010116303114346
0.0019389973769339834
-0.012380543307804222
0.005123047070499401
0.004046758467381941
0.002228759604004329
-0.006761179880238604
0.0012578386243087126
0.005326328033018006
0.005851330103854965
-0.007584738049696365
0.002725179330941531
0.007867626951974223
0.006643711711214523
-0.00852045980629423
-0.0002516997370823435
-0.004460304828058108
0.007869573563554581
-0.00829284748258631
-1.4971293680302207e-05
-0.004128810139067786
-0.0003732722121984897
-0.00918928658725028
0.009544667692416955
0.006070344063713514
0.011044732976906323
0.0018618702024083941
0.0016024631475615616
0.0007947954453736631
0.012183210374701993
0.0033647523322381362
0.012398639607153266
-0.007545261463441604
0.01127031503534995
0.0017153579156807357
0.008678515615864472
-0.005116428668528717
0.005079473509264517
-0.033110038033478464
0.0009844486187009134
0.008181163056058911
-0.00631726537553237
-0.006070983921181821
-0.0005890172246269152
-0.0014661692030149668
0.00936190023243279
0.009360768515348868
-0.007052863542887628
-0.0007500785925738233
0.008784888864445105
0.0008398309076514216
-0.006945845754588786
-0.00647721602224244
0.007510935244436967
0.01075525753816715
0.00028496111571142837
0.0011849776546492352
-0.005207203626207993
-0.005289779629690729
-5.204485019933192e-06
0.00019016551122296073
-0.003891522932434624
-0.00011381167488440858
-0.0026381892318614775
0.00043242149305312334
-0.007296140466588528
-0.006783040900481398
-0.006718265203348779
0.011727554061678514
-0.0017340053742537955
0.011785947533745686
-0.006170956996362242
-0.004522767363290781
0.0035120928232803923
0.0017350865181424739
-0.01768207656186283
-0.007006002958859959
0.005519432151798006
0.010521708575487234
-0.004180251833229035
0.007886409675171456
0.002617658498210119
0.004243329220476234
-0.0012087220140301932
-0.003813669293973832
0.003926543134655682
-0.0013040193338778833
-0.005419281191863202
0.0006512241030526039
-4.501058722844602e-05
-0.00710702065609754
0.03240876607552224
-0.003152252060977238
0.0010084068847672567
-0.0011571966135750953
-0.001692331204707479
-0.001474342475715853
0.00809625296459577
-0.002561246970239281
-0.002235561093234255
-0.007105833662173987
-0.005446578440006683
-0.007003816991181541
-0.0028654569550212437
-0.0019585356727586734
0.002854978915713282
-0.006510922102101043
0.03379861505824931
-0.00711688163910695
0.004725789012707542
-0.0014414917725279679
-0.00351461526721325
-0.000795769836740971
-0.008410636629516433
-0.00411581005489391
-0.0076382212801178
8.700183585619393e-05
-0.01764185159502712
-0.006364060357370122
-0.005985870442927464
-0.003482685162171532
-0.004268971975187952
0.0007626139376303875
0.002502342388742408
-0.002689007883463759
0.0004654173894526509
0.001474174813303754
-0.007841727098209414
-0.0020032939220029442
-0.005028969467247999
0.002046030895920483
0.0016197048938870599
-0.0012789571547292765
-0.005823552909931979
0.0027069159975568126
-0.00655576465989918
-0.0005626337140178515
-0.011562159655899405
0.00321232313313679
0.004117795218792891
0.00011660245086467084
-0.006620673253365748
0.0038939664916256026
0.005353405037543302
0.0007308353699863688
-0.007415968621215942
0.004385528609881176
0.006709092031106179
0.00121151984744411
-0.0078124393687815305
0.005125718952699661
-0.004267106304899043
0.0016219273861483494
-0.008007166578595678
0.0007118784131123896
0.0034558874131080403
0.005857848790311499
-0.00889080986668344
0.00235087013450285
0.0061078068553332395
0.006654971349778864
0.02189490256315407
-0.0005045021123159749
0.0003616580074049365
0.007884837382248138
0.02185822629243238
-0.00018988024929861096
-0.007318030409141284
-0.0005069639521822864
0.022215867186839974
0.009566131937733343
-0.0056115135247076725
0.011065709316096992
0.0021768334141563143
0.0015030685366795007
-0.004115623491593722
0.012199874453920494
0.0017303396779049455
0.012403056390888184
-0.007554819577207618
0.011258799395939293
-0.0008170824953128111
0.008639195912472575
0.006739052764185082
0.0050096144440743
-0.0004571826714729009
-0.006606937001797196
-0.00680763049010353
-0.007455131975977488
-0.0033297205492384394
-0.007740676025156523
-0.006646733233809814
0.0009509841012918535
0.008219029473699397
-0.005350288160074384
-0.00599672817009134
-0.001489910000626161
-0.0026839229286443915
0.008045962202328052
0.00940004417937873
-0.007587297801085474
-0.001997343858275335
0.007502395409875345
-0.00016842398637310546
-0.007554333453342448
-0.006924439144860913
0.006420334313063368
0.010791080149379056
0.00026029649990533916
0.0003037474842577454
-0.0030488361465060123
-0.005240555533039695
-0.0012376836016272708
-0.0006222467438282913
-0.003706524988837151
-0.0013209374178075677
-0.003432509063525941
-0.0006846221429332375
-0.007006325867014811
-0.007017168846051908
-0.0073308775387914875
0.011749235841284667
-0.0017600859854990086
0.011786648446457324
-0.00683791851383521
-0.0044917586807728845
0.003683352185132788
0.0011690249719664395
-0.0065928714691980165
-0.006961805894626066
0.004601347024072851
0.01048655574302301
-0.004923881598261343
0.007808004450821982
0.00205668395123554
0.004121177612030931
-0.0012143878057250853
-0.0037997205979315943
0.002932795535692379
-0.0016557249831596636
-0.00609299117673702
0.0004957884851182694
0.005759628281358807
-0.00682497009810527
0.013333848285541136
-0.003149719997934116
0.0005825256038871253
-0.0013790452375513488
-0.0016849950351778024
-0.001656619993772038
0.006918124589259217
-0.0025756134457569535
-0.0022094348509730816
-0.006634590275037821
-0.005217059260225385
-0.006460234443221184
-0.0028190540477249127
-0.001977730113883195
0.0030078657551980293
-0.00597836288575614
0.013894599800108551
-0.0065627576561029695
0.004772665183389501
-0.0014621253991487513
-0.0034358399746775774
-0.004225237049478312
-0.007273837509592767
5.9485797927406376e-05
-0.006041643112576086
-0.006274545935653061
-0.005472147300269449
-0.0039875350801365115
-0.00416720426354874
0.0007287613113665789
-0.004180095171257763
-0.00349412056606479
-0.0009492949922270328
0.0014464072491525602
-0.007346607757811746
-0.0030193116013412153
-0.004892077567777397
0.0020240397600616673
0.0016418383562529012
-0.002431154714015924
-0.005656548038557506
0.0026899531519994366
-0.006304263900163404
-0.001768211998563666
-0.008181253003661968
0.0032036886895699676
0.004299805315068568
-0.0010710669143897526
-0.006423393461527171
0.003897188239082539
0.005405531056492103
-0.0003865079271007656
-0.0071741345103143285
0.004395368276790057
0.005694539756411319
0.0001894910797554252
-0.007263794029684596
0.005143586972988918
-0.0037451327834834543
0.0007194722422608576
-0.0076801317213705846
-0.0001256783106147138
0.002808773407673251
0.005878985081592315
-0.008216211582664328
0.0017604318350902593
0.006169539656281744
0.0066872075410146625
0.007456602914626766
-0.0008745832081172868
3.0545904608203435e-05
0.00792696920037713
0.00712256193134692
-0.0004174827743256659
-0.0069511272036116255
-0.0006958650863584995
0.007534954610229815
0.009607601332884862
-0.005040238587235925
0.011108555683530329
-0.0007952453071111895
0.0013378442477009578
-0.0035263536775689487
0.012226252654903616
-0.000930721069368564
0.012407946160793833
-0.005563146940533749
0.011222334232547489
-0.0008423028719752962
0.008556277452580903
0.006812025782784647
0.0048812773276726545
-0.000466311575557845
-0.005646937004489401
-0.006649770626057619
-0.007852393130748958
-0.003974103664239357
-0.0066445637430829416
-0.0072856286219398
0.0009283029712551117
0.008277950714454873
0.004343466387447827
-0.005863437985977195
-0.0017118635882006213
-0.0036806196605296475