# vtk DataFile Version 1.0
GRUMMP topologically 2D mesh
ASCII

DATASET UNSTRUCTURED_GRID
POINTS 4142 float
  0.9902132100051211  -0.0013897599745845   0.0000000000000000
  0.9878682672001325  -0.0017209544766007   0.0000000000000000
  0.9922830260938109  -0.0010965337451688   0.0000000000000000
  0.9852627687065505  -0.0020876945602550   0.0000000000000000
  0.9824126515147726  -0.0024873693035198   0.0000000000000000
  0.9941016532545700  -0.0008382294190312   0.0000000000000000
  0.9793229395886266  -0.0029189889321549   0.0000000000000000
  0.9759912936709813  -0.0033826574903297   0.0000000000000000
  0.9957253756688895  -0.0006072067599891   0.0000000000000000
  0.9724158418644283  -0.0038783672872607   0.0000000000000000
  0.9972114818934485  -0.0003956828894990   0.0000000000000000
  0.9685983419668763  -0.0044053177853816   0.0000000000000000
  0.9986172604849257  -0.0001958749290171   0.0000000000000000
  0.9645418982154840  -0.0049624143705746   0.0000000000000000
  0.9602493276520160  -0.0055486932126648   0.0000000000000000
  1.0000000000000000   0.0000000000000000   0.0000000000000000
  0.9557225436143375  -0.0061636003738353   0.0000000000000000
  0.9986172604763917   0.0001958749302285   0.0000000000000000
  0.0136778115501445  -0.0198442283865115   0.0000000000000000
  0.9509632892996972  -0.0068066585239019   0.0000000000000000
  0.0111799405480040  -0.0180409152078963   0.0000000000000000
  0.9972114818757430   0.0003956828920181   0.0000000000000000
  0.0164236219435115  -0.0216216850259729   0.0000000000000000
  0.9459737546847580  -0.0074771440326796   0.0000000000000000
  0.0194159763686392  -0.0233724637256901   0.0000000000000000
  0.0089312659290954  -0.0162123970812813   0.0000000000000000
  0.9957253756403164   0.0006072067640564   0.0000000000000000
  0.9353156997544615  -0.0088958032333210   0.0000000000000000
  0.0226532123065557  -0.0250954152174871   0.0000000000000000
  0.0261336316774566  -0.0267893559859237   0.0000000000000000
  0.0068429846519911  -0.0142695304151425   0.0000000000000000
  0.9237713702124288  -0.0104115615140689   0.0000000000000000
  0.0298554003449755  -0.0284531869488138   0.0000000000000000
  0.9941016532123735   0.0008382294250309   0.0000000000000000
  0.0050308200222286  -0.0123013782195995   0.0000000000000000
  0.0012596550434314  -0.0062543845982477   0.0000000000000000
  0.9113626015789812  -0.0120184565864932   0.0000000000000000
  0.0338165365583016  -0.0300859006297539   0.0000000000000000
  0.0005600587198625  -0.0041872521188657   0.0000000000000000
  0.0034956879705714  -0.0103096477045821   0.0000000000000000
  0.0380150486067802  -0.0316864834866382   0.0000000000000000
  0.0001400674572995  -0.0020989425108620   0.0000000000000000
  0.0424489169588349  -0.0332538061244847   0.0000000000000000
  0.8981160449036193  -0.0137076729882106   0.0000000000000000
  0.9922830260341767   0.0010965337536290   0.0000000000000000
  0.0022384105171692  -0.0082946477552229   0.0000000000000000
  0.0000000000000000  -0.0000000005380880   0.0000000000000000
  0.0471161050109934  -0.0347866680569130   0.0000000000000000
  0.8692172420003259  -0.0173025512123363   0.0000000000000000
  0.8840586048664243  -0.0154712341935952   0.0000000000000000
  0.8536242589802903  -0.0191927756559575   0.0000000000000000
  0.0520144653095357  -0.0362838744017245   0.0000000000000000
  0.9902132099234322   0.0013897599861408   0.0000000000000000
  0.0001400673054027   0.0020989413744649   0.0000000000000000
  0.0005600583994229   0.0041872509286527   0.0000000000000000
  0.0089312642537700   0.0162123956290166   0.0000000000000000
  0.0068429832427153   0.0142695290019493   0.0000000000000000
  0.0022384098100130   0.0082946464730838   0.0000000000000000
  0.0034956870455263   0.0103096463775504   0.0000000000000000
  0.0050308188630767   0.0123013768482443   0.0000000000000000
  0.0111799386902237   0.0180409137864515   0.0000000000000000
  0.8373107726191357  -0.0211334926288444   0.0000000000000000
  0.0624935355792051  -0.0391666954139108   0.0000000000000000
  0.9878682670932252   0.0017209544916756   0.0000000000000000
  0.0136778095139640   0.0198442269960848   0.0000000000000000
  0.8203090273240524  -0.0231167391866414   0.0000000000000000
  0.0738633143603066  -0.0418930499584099   0.0000000000000000
  0.8026551811301268  -0.0251343400368426   0.0000000000000000
  0.9852627685719384   0.0020876945791685   0.0000000000000000
  0.0861021386417074  -0.0444536409739349   0.0000000000000000
  0.7843840873894279  -0.0271778197795966   0.0000000000000000
  0.9824126513500548   0.0024873693265746   0.0000000000000000
  0.0991843265815398  -0.0468392532814141   0.0000000000000000
  0.0164236197329729   0.0216216836667636   0.0000000000000000
  0.7461418339277840  -0.0313078737465108   0.0000000000000000
  0.9793229393907722   0.0029189889597428   0.0000000000000000
  0.1130825286139299  -0.0490420520078216   0.0000000000000000
  0.7058944105034720  -0.0354399888107516   0.0000000000000000
  0.1277704618123611  -0.0510562827506626   0.0000000000000000
  0.1762568929815641  -0.0559042078350805   0.0000000000000000
  0.0194159739879911   0.0233724623981675   0.0000000000000000
  0.6639684116827792  -0.0395008026994765   0.0000000000000000
  0.1937838883744062  -0.0571083155282771   0.0000000000000000
  0.9759912934368556   0.0033826575228533   0.0000000000000000
  0.2119350336566717  -0.0581032139582273   0.0000000000000000
  0.1432165586985055  -0.0528747491799113   0.0000000000000000
  0.1593891568184451  -0.0544918670991958   0.0000000000000000
  0.0226532097601106   0.0250954139222151   0.0000000000000000
  0.6207078411914361  -0.0434191082996254   0.0000000000000000
  0.5764634620046084  -0.0471137377839725   0.0000000000000000
  0.9724158415910057   0.0038783673250912   0.0000000000000000
  0.2306739249637577  -0.0588890260835713   0.0000000000000000
  0.0261336289695199   0.0267893547234291   0.0000000000000000
  0.5315950381341085  -0.0505057454921963   0.0000000000000000
  0.4864703588817339  -0.0535094604401647   0.0000000000000000
  0.4414549182767121  -0.0560390634426787   0.0000000000000000
  0.9685983416513994   0.0044053178288238   0.0000000000000000
  0.2697570606452168  -0.0598365819607799   0.0000000000000000
  0.3969170552729402  -0.0580119076690758   0.0000000000000000
  0.0298553974799863   0.0284531857194991   0.0000000000000000
  0.9645418978552561   0.0049624144199126   0.0000000000000000
  0.3107174127482247  -0.0599745523566999   0.0000000000000000
  0.3532197168655907  -0.0593474025151865   0.0000000000000000
  0.9602493272443249   0.0055486932681955   0.0000000000000000
  0.0338165335406938   0.0300858994339835   0.0000000000000000
  0.0380150454409591   0.0316864823247920   0.0000000000000000
  0.9557225431564565   0.0061636004358678   0.0000000000000000
  0.0424489136491938   0.0332538049970267   0.0000000000000000
  0.0471161015618897   0.0347866669642923   0.0000000000000000
  0.9509632887889385   0.0068066585927330   0.0000000000000000
  0.9459737541185675   0.0074771441085412   0.0000000000000000
  0.0520144617255517   0.0362838733443521   0.0000000000000000
  0.9353156990700551   0.0088958033238094   0.0000000000000000
  0.0624935317401540   0.0391666944281135   0.0000000000000000
  0.0738633102849253   0.0418930490455120   0.0000000000000000
  0.9237713694002159   0.0104115616199952   0.0000000000000000
  0.0861021343485112   0.0444536401350998   0.0000000000000000
  0.9113626006299211   0.0120184567085017   0.0000000000000000
  0.0991843220904188   0.0468392525175462   0.0000000000000000
  0.8981160438094651   0.0137076731266115   0.0000000000000000
  0.1130825239435962   0.0490420513187447   0.0000000000000000
  0.8840586036192291   0.0154712343488011   0.0000000000000000
  0.1277704569818227   0.0510562821360933   0.0000000000000000
  0.8692172405930260   0.0173025513845012   0.0000000000000000
  0.1432165537277111   0.0528747486397878   0.0000000000000000
  0.8536242574066383   0.0191927758449732   0.0000000000000000
  0.1593891517258480   0.0544918666322352   0.0000000000000000
  0.8373107708732270   0.0211334928345504   0.0000000000000000
  0.1762568877862003   0.0559042074398506   0.0000000000000000
  0.8203090254010921   0.0231167394087162   0.0000000000000000
  0.1937838830953411   0.0571083152030304   0.0000000000000000
  0.2119350283118140   0.0581032137003017   0.0000000000000000
  0.8026551790260408   0.0251343402747870   0.0000000000000000
  0.2306739195716207   0.0588890258904683   0.0000000000000000
  0.7843840851007032   0.0271778200327233   0.0000000000000000
  0.2697570552113356   0.0598365818878674   0.0000000000000000
  0.7461418312636445   0.0313078740273454   0.0000000000000000
  0.3107174073396524   0.0599745523895525   0.0000000000000000
  0.3532197115457904   0.0593474026374948   0.0000000000000000
  0.7058944074605978   0.0354399891145804   0.0000000000000000
  0.6639684082655058   0.0395008030201497   0.0000000000000000
  0.3969170500997217   0.0580119078642495   0.0000000000000000
  0.6207078374111498   0.0434191086291270   0.0000000000000000
  0.5764634578798972   0.0471137381129498   0.0000000000000000
  0.5315950336908907   0.0505057458089039   0.0000000000000000
  0.4864703541532008   0.0535094607315534   0.0000000000000000
  0.4414549133024901   0.0560390636939180   0.0000000000000000
  0.9901595609719056  -0.0023783411927147   0.0000000000000000
  0.0326649145266362  -0.0334200843455863   0.0000000000000000
  0.9878329678703356  -0.0027145673674890   0.0000000000000000
  0.0733998606732272  -0.0440344159407381   0.0000000000000000
  0.9922372924577029  -0.0020726951087579   0.0000000000000000
  0.8846838814295012  -0.0208009306521702   0.0000000000000000
  0.9852539181750185  -0.0030832573491977   0.0000000000000000
  0.8205556230767344  -0.0253024477924150   0.0000000000000000
  0.9824277530968584  -0.0034836508822686   0.0000000000000000
 -0.0022154120548041  -0.0049277430541563   0.0000000000000000
[...]
POINT_DATA 4142
SCALARS continuity float
LOOKUP_TABLE default
-0.0019299685043021133
-0.002405450466310759
-0.001564866579790884
-0.00276587160042312
-0.003084909952877749
-0.0006185940652289675
-0.003410830030671281
-0.003721101705129903
0.00041693092217106963
-0.00400584358933482
-0.0035107858047330664
-0.004314165277663505
-0.003939500338475296
-0.00459887771308106
-0.004895025606208382
0.00028608886721740313
-0.005206708067296951
0.005408533933351155
0.0016395759895309729
-0.005457637076950877
0.0014737428195585724
0.0038913410979477835
0.0018377929285023956
-0.005807890187830227
0.0020349399763650872
0.0007216146634994511
-0.0003509784142283551
-0.0063219685803194885
0.0022340131102919587
0.0024451708759074976
0.0004886658866914774
-0.006828646009806066
0.002651517967416449
0.0008171012911791292
-0.00021690055899239647
-0.002112222545195128
-0.007389175488143424
0.0028508921696093377
-0.0020334752947679864
-0.0009612677103622999
0.002986402893006843
-0.00154553531125125
0.003066753028412171
-0.007909940420278285
0.0016977968929407837
-0.0016752345837035055
0.0002317655792189852
0.0032247331860613985
-0.008728006164432266
-0.008291022788894977
-0.009061653420858793
0.00274750033317255
0.0021007741774460697
0.005957800799578529
-0.007746592936247837
0.0001258983678712757
0.00021208634707941323
0.011286118701635928
-0.004612410827481065
-0.0008743282515152008
-0.0006262920383999614
-0.009510746663079283
0.003150322779643055
0.00259395237094342
-0.0008890092824194737
-0.00978713674048369
0.003424230269952726
-0.010283714022216518
0.0029467240781629648
0.00386506591758283
-0.010207844574464081
0.003277843366472506
0.003990198127863025
-0.0011814932244148784
-0.010843454376366423
0.0035448254643524993
0.0038635096498576145
-0.010879980798521104
0.0036118948977769162
0.0023368642889644996
-0.0014880250274469388
-0.010747238283889272
0.0017447759602093977
0.003826715963821441
0.0009897334317599698
0.003259743523816311
0.002821716230826034
-0.001778995255448656
-0.01020076557133669
-0.009141150989446727
0.004116012160925115
-0.0005527909969719289
-0.0020771541994674663
-0.007546942048552562
-0.005544101240917384
-0.003321913002163582
0.004380872321166383
-0.0011700035886613367
-0.001321764231832262
-0.002350931552003421
0.004662022935620581
-0.0006545062305144077
-0.00029374681333758245
0.004934745774841733
-0.0026173220534335038
-0.0027992732052818025
0.005249058575411115
-0.0029271480478214804
-0.003126705328693141
0.00558779918279518
0.0059052973925208955
-0.0027327265843141053
0.0064204933227037944
-0.0031843115700604854
-0.0035586044440816733
0.006916003705358043
-0.004060074335732283
0.007504431727905927
-0.0042264826828138525
0.007967954424205491
-0.004129937346564799
0.008469731136826569
-0.0038967871296966506
0.008766866965894253
-0.003555423768365593
0.009225214381368543
-0.0031261123391559784
0.0094619493789558
-0.0026434837343027174
0.009888313229479029
-0.002047018230879099
-0.0012775503397408335
0.010284002444930425
0.0002716474055402693
0.010462133918452056
0.0009234597040894647
0.010766416011747264
0.0004341583724558791
0.00011917264031161522
0.010969420522248623
0.010937127882691756
0.0012179848239136364
0.01037967388511109
0.009340756703946608
0.007754541204673052
0.005674229642789817
0.0033297728415553167
-0.0018180185331127753
-0.001021011462433572
-0.0023322370799872694
0.004302854486944564
-0.001621531267599126
-0.00803781570707833
-0.002670619068151228
-0.009675032557781207
-0.0029881242485823513
-0.0010064405554377049
-0.0002960863489241528
0.004493049280422481
-0.0033095828011000046
0.00033344540157608513
-0.0036165590607700544
0.0026057299237921927
-0.0004345572271148763
-0.0017997597571266781
-0.003902626802598977
0.003747097034453092
0.00018786621577458713
-0.00846270127384664
-0.0042135645774761055
-0.009396016799657297
0.005089903214882333
-0.0001569804484349815
-0.004498551078174457
0.005042564557719231
-0.004796672985948205
0.002353482290423891
0.000541951298034462
-3.2888514785636266e-05
0.0005296082035715782
0.00017904225944267142
-0.00013272942829947658
-0.00029423787501545515
-0.0003395021096363523
-0.005106948438623837
0.003157525468752753
-0.005681224515453586
-0.00045396070779964653
-0.002479650753381894
0.00044244483646808117
-0.0053550903683165845
-0.0018077199821144132
-0.003592295050782327
0.0056268766418610516
0.0003162350095476525
0.0006699267652476117
-0.0013696355175448788
0.004907347287882809
-0.005726472964070805
-0.0009510427338914249
-0.0003597875963055252
0.0052930667240986395
-0.0049651802388255666
-0.007748543485007066
0.00038154927428318104
0.0011175576151901548
-0.006226340677972352
0.0005611749280046501
0.000538428856612413
0.0035945235472587636
0.001328531991567503
0.0020309951643932506
-0.005883717585095738
0.0021567828182206985
-0.006742243041224783
-0.0005746663754768841
0.002005981035288673
0.0032790550975666318
0.0005346981635422271
-0.001631221861808698
-0.006607714396968875
-0.008952144216078945
-0.005708166820816282
-0.0004647254170699196
-0.00730404782711589
-0.008183099238182858
0.0025933239977564337
0.0006319384842710295
-0.0042671759806328395
-0.008619867211510538
-0.006850691611255221
-0.000808374358438792
0.0030212328669972635
0.003076249050281262
-0.0022346250817514377
0.0013448504334843162
0.0032980642226007515
0.0006299053723787519
-0.007826209837736431
0.0021130087818047563
0.0017352509274534678
-0.003497162047525115
-0.00657236436738661
-0.008561820574737292
0.0003345461235588696
0.0017270637315716965
0.0034803353770802826
0.0004308070537962432
-0.008645738756136997
-0.007799382240144225
-0.008211435785249308
-0.00812931090315919
-0.00897940268309701
0.0027213570169003325
0.0035053116791315675
-0.0076656243894313225
0.001988811828986938
-0.0010338094986199829
0.005356162684530764
-0.008889803498041667
0.002113391484015553
0.0022346419253432863
0.005764612986744251
-0.000943840408643561
0.006502263393111806
-0.004031511923779046
0.009907177021335542
0.002017430291122418
0.0021294411304856944
-0.002038085694519472
0.0052394297316311934
-0.0021983244827224148
0.004430465480615164
0.001606172673690691
-0.009426544334907253
0.0023071560722349284
0.003811308448987264
-0.007279424584718425
0.0025166196094527408
-0.00246149102067871
0.003229700608213005
-0.002846718934372532
-0.009705208050580446
0.002294136104541375
0.004198790985126906
-0.0044512021941272625
-0.010185835180086027
-0.00010550687864368978
0.002847750431539224
0.0012054013361592509
0.004655725059976539
0.0006435328176541664
-0.010147904173661827
0.0007978923992287854
0.003176911884831496
0.0025072669901328856
0.004766764163119496
-0.006719631150689684
0.002027049635726587
0.003175923650220176
-0.010754202841619851
-0.004674539374918967
0.0034398528067832563
-0.0024883704674550718
0.004604013752785345
-0.00010296408815791913
-0.010792361979115154
0.0025268319125124157
0.004302455827407978
-0.0010779614859537173
0.0028600159432230093
-0.008290036126662993
0.0009139707193093693
-0.006210327962200742
-0.010656805564825539
0.003194520791435252
0.0022085984466832533
-0.0007044871868711718
0.0037207191235162436
-0.00023577299172975345
0.0013613267120349158
-0.004741124516775955
0.0038953618313959273
8.298110841776905e-06
0.003401821602452925
-0.0020577841366264593
-8.844311702021186e-05
0.00024946896586442065
-0.010102400267060573
-0.005716545795080884
-0.009036085921995484
0.001280043528125813
0.0040090343873855116
-0.002997069961664799
-0.00011202241552119458
-0.0003918577271946519
-0.0009520333845830011
0.002673174603997369
-0.0074311915722819494
0.0036317488912823376
-0.005415050738008503
-0.004311245292241486
-0.003175432959135117
-0.007875548007673733
0.004275587653314278
-0.005348950567274362
-0.0008815092089337387
-0.009332433685985372
-0.001152004393312149
-0.003790623718030726
-0.0017053768746578878
-0.002505713859182534
0.004557583746605462
-0.009692453929036468
-0.00041217261609481794
0.0028463104155371935
-9.30806708816345e-05
-0.005102792660919715
0.004833149107089011
-0.007264283678336868
-0.0023483044598617653
-0.00479549607450947
-0.002827987960705748
0.002704559827034961
0.005150221689525117
-0.004502805899167588
-0.003155642976492555
-0.0071535249717068145
-0.0033781540950687094
0.008929853080301002
0.005486047061507096
0.00400822480468878
0.005822238247577243
-0.004226332943543707
-0.0034827816916314807
-0.008592290719660197
0.006328760939124809
-0.0023417099441594372
-0.0038435735709926033
-0.009604051596442167
-0.004330507785205493
-0.0039220704492091306
0.0068296414701373345
-0.0005239102780523165
-0.004848934316195301
0.0007120719948270746
0.007419978395595507
0.0038984936862233167
-0.005000997747163012
-0.003646332290909617
0.007883915940218275
-0.005917381919641302
-0.004867585885670878
-0.003353267989194899
0.008385185618477148
-0.010085001355421392
-0.0045871359334692845
-0.0010015280587670299
0.00868417796827014
4.779104452218663e-05
-0.004191242150673508
-0.0030460197753100844
0.009143432363064466
0.0029756965431948154
-0.0037072198170087943
-0.0027513274702964277
0.00937948851992482
-0.0027757058784261884
-0.00316864289896465
-0.0016149126049130687
0.00980544420316876
0.004842323927015025
-0.002511927703999553
-0.0024297206181044554
-0.0016495511613359246
0.0017872178242910402
0.010184975996459348
-0.001991790878557651
-0.0001696653208490129
-0.010036559850851681
0.01040316186676312
0.0011761257164921476
0.0006340497373532704
0.002530585303004365
0.010676444074001562
-0.0010107177945054512
0.0001917377288758776
0.003263615868811749
-8.237179294493858e-05
7.537966940882591e-05
0.010882115987416912
-0.0023207319911620625
0.010845341468504875
0.0011095047806866747
0.001047383371771599
0.005336744290763141
0.010282213631464657
0.0015389341879356465
0.009236896733777157
0.0026183601578062023
0.007639163150671653
0.003394148155226394
0.00554533046475408
0.004171317577611831
0.003184021611768359
-0.0011086120694830557
-0.010156483916862089
-0.007517628947126028
0.002916158172193031
-0.007231605321809276
0.00488815625010839
-0.008781678279153965
-0.010115319286900676
-0.0013982615969361724
0.003224437613299936
-0.0007917844741992438
0.005095662845183587
-0.001973354413400208
0.0036448049269233755
-0.0009388841411224691
-0.01072168060938064
0.0014553841706737914
0.0034748169204180204
-0.001550852278106498
0.004996647752395278
-0.0018975573729985407
-0.010752236657129939
0.002467482910672403
0.004729400554486541
-0.00667464692767182
0.003276606377524629
0.0011672637928588745
0.002622719665782327
-0.002227597200528431
-0.01060641643537074
0.0014893259905175403
0.002607141789058642
-0.002645627806459031
0.0037476916914850377
-0.00010920715729211851
0.0017570659272316818
-0.0031877893218051657
0.0043334430521204245
0.00027689168526550583
0.0038351513234587816
-0.006171361892240813
0.001539449249269279
0.0026895895252381868
-0.01004242906444912
0.0013180294010147907
-0.00896336694051664
0.00027465014557048387
0.004030183047388067
-0.0025923007977731623
0.00022253774285230487
-0.0006245824722451419
0.000489923890864794
-0.00346811879095773
-0.007345165313668148
-0.009891328369597016
-0.005313008163624247
-0.005685845976159362
-0.003055283676021951
0.00021174472955032774
0.004288460278818441
-0.00347730598957566
-0.0006060369075730804
-0.007991624098159882
-0.001008629937206602
0.001121914054117072
-0.0004709915127786385
0.0015205560884140078
0.004565682670071521
-0.002885027108281451
-0.0001999182512724082
-0.0003090949295711195
7.818730192871352e-05
-0.005320885655864744
0.00483482105573417
-0.00037946085742214633
-0.001340422642468762
-0.00326021169077473
-0.0020286204480776376
0.00021410343985408576
0.005146080081935693
0.0005605876578278087
-0.0025657110284070103
-0.00014483390476669763
-0.0029535384700864185
-0.0050796157758494585
0.005477744706873551
-0.0004432428781149988
0.0058075228948960885
-0.0047766337531067425
-0.0032466227311696095
0.0003724664692559689
0.006305903426883098
-0.004490781401798992
-0.0037645855109526547
-0.007597866437519778
-0.004425718041945398
-0.0007075748117178177
0.006803598902170226
-0.009218172235743238
-0.005074245628380388
-0.00422148233010367
0.007391104079093601
0.00036140266688826356
-0.005326202953423191
-0.0007918542281188067
0.007853612211202626
7.28585541504229e-05
-0.005259986635458353
-0.003927430406986896
0.008355091446614464
-0.006850896113881644
-0.005014395374984279
-0.0012588998205720612
0.008653440711017231
0.0027990613611730774
-0.004630717062776923
-0.003665962076877694
0.009112557259185765
-0.007020925683535764
-0.004140556159664398
-0.00338709763421045
0.009347345199104096
0.0006159411360183558
-0.003587146488786736
-0.001263037904060778
0.009772039851103267
-0.008265829634297128
-0.0029129174964122326
-0.003098491191954907
-0.002049194961978871
-0.009478594630758754
0.010154824995537394
-0.0028268765411681336
-0.0005074101151328588
-0.0006321426785825452
0.010368702326046354
-0.0019268194461122394
0.00035321160377292063
0.0018070666037686943
0.010641269265090167
-0.002540658023362155
-2.7490014791063146e-05
0.004351982507962168
-0.0002583663559256725
-0.002156714833494301
0.010840103130023163
-0.009951476124130332
0.010794454816944259
0.0005549687976270246
0.0008996966214980442
0.0001234347627529679
0.010219354595385114
0.000119151287458162
0.00916037176084937
0.00304734977684554
0.0075501248244064356
-0.0003217829303137514
0.005438822019256383
-0.0002762743983011344
0.0030585842802214524
-0.0008784860263120927
-0.006602435199544326
-0.010637213920699875
0.004834072629748489
0.0034952389775781264
0.00032287517246461217
0.0054510988842735855
0.0011121824089846265
-0.010650069861907
-0.001908136374030539
0.0053329336381146555
-0.00010978381674673523
0.004045923331904167
-0.0013410055456619357
0.004090206057309675
0.0005770958469785764
-0.010480854955689286
-0.006108878802569309
0.0033805467395171787
0.0027804499133968963
0.0037569212902024297
0.0008204630387362345
0.0025164521640886886
-0.0004513561635019474
0.005029905766992555
0.0004886156075717435
0.004583018772460888
0.003476364044767815
0.0037225897092735705
-0.0007055370786763528
-0.009890748759262913
-4.9795613724207705e-05
-0.008783065673907839
-0.00012978608485594967
0.004029399854394428
-0.007505871222388512
0.0009129978439437339
0.0014855191763282968
0.0030955194252338513
0.0013063643238801028
-0.00713168251675637
0.0005403429358655759
-0.005063111989014498
-0.0006486042332655563
-0.0027652623791297984
-0.005278398372453166
0.00427876634830894
0.0002946618952464167
-3.73499846888664e-05
0.00030273418731385397
-0.0006716620267072151
-0.0004537299350288761
0.002276609073985843
-0.002538591560890849
0.004548814749868608
0.00010883737680420776
0.000272858966347736
-0.005047017631754645
0.00047448043885805775
-0.0005106894827400254
0.004809885073642067
-0.004751406960424407
0.001335976527121635
-0.0009250560482212503
0.00040154040531844784
-0.004474181319127128
0.005115329926101376
-0.00714401647404962
-0.0004784612738754716
0.0022827829675055172
-0.0011905587868553434
-0.009016400448347742
0.0054427796802173295
-0.00422111419741896
0.005769469022436849
0.0021000961286960595
-0.0019487042925561719
0.0040721188674264835
0.0062585720566711925
-0.0013050332680416953
-0.0028424036101824405
-0.0029656968526499488
-0.004003846267040586
-0.003938603829083783
0.006750506376206268
-0.006241075476204153
-0.0050160110759399305
-0.0007552399888529125
0.007337092143347494
0.002890315035220949
-0.0055580409009421666
-0.0036950143447807135
0.0077947945504573115
-0.006790871104890614
-0.005708421415469047
-0.0034352741490629897
0.00829488589361675
-0.001355301967037777
-0.00561266676371457
-0.0016410395060707003
0.008589320562920371
-0.007735653424183399
-0.005325748739268556
-0.0031647782342676943
0.009046664966423165
-0.009260114394141261
-0.004889144142411534
-0.0029233478986678465
0.0092775432106779
-0.00075667621278301
-0.0043573646767497195
-0.0020234223798963943
0.009698901343272308
-0.0017408429219346235
-0.003688433511040662
-0.002651831389663548
-0.0028103178680129585
-0.005651459340001238
0.01007579683334278
-0.002340915849554866
-0.0012051192603871773
-0.009713344947014582
0.010285240788601017
-0.0003468927424183405
-0.0002229453626138876
-0.0003381958037342276
0.010551405555646667
6.0602980188542e-05
-0.0005100303928393536
0.0031020626698743934
-0.0006658158292014466
0.00043692263661233784
0.010733054972605202
0.0039404481179847175
0.010663449714135844
0.000478318474347425
0.0005519099761168524
-0.000100587149445298
0.010063259374527692
-0.00035914502521025284
0.00897484518738525
0.0023111939189936945
0.007331528034956107
0.005707279164302044
0.0051818224408209605
-0.009632682772383173
0.002759781082681261
-0.005637309877486523
0.005312565017443295
0.0033135585792283162
0.0012107159258030716
0.004503031275596929
0.002733434904492697
0.0010126482415618514
-0.00648030147335627
-0.010478360210512374
0.0055013250747875525
0.0035224088646953603
0.0006634910091792863
0.005154222532792735
0.0008551928223131391
-0.010455160590394953
0.001907062545873884
0.005470842468053804
-0.0001253948865214748
0.004937326997104067
0.002382880350137662
0.0015157398891015275
0.0008441396293162891
-0.010242544755822338
-0.006007467118351238
0.004391244728190133
0.0022765529259428114
0.0037667780639185746
0.0017824430225405188
0.0035835269860397504
7.346610923555207e-06
0.005503593925720656
0.0012599924792106132
0.005299275504459945
0.005344005502700295
0.002065490249317902
0.002626666144743925
-0.009605139765542246
0.00044445367031879985
-0.008445134033166051
0.0025875769198747127
0.004028757221619573
-0.006793696314889153
0.001956937303443406
0.0016271290319335857
0.002547181216210167
0.0013287196189794884
-0.00673787692909771
0.0018497065570004453
-0.004606043310440672
-0.0009093196182109445
-0.0022423330831380503
-0.005208880153145699
0.004263480995258516
0.0008674240521352123
0.000864963919244902
0.002312567579658881
-7.572538071769566e-05
0.00019497290762804685
0.0028611348444489222
0.0008729695827887604
0.004521725065797914
0.0006713365016234713
0.001053719643178761
-0.004988792477327521
0.0011541448048357117
-0.0005393712046011536
0.004772378020809935
-0.00470615406718085
0.0029622375141601424
-0.0005672474809228652
0.002864009639491418
-0.00444541472091396
0.0050719962686399745
-0.006475744918277334
0.0024901921109999094
-0.0008588901055293978
0.0020350700692156275
-0.008667344659948535
0.005391332253008178
-0.004208269096543471
0.0010620117650912563
0.0050937155340296855
0.006183094092132334
-0.0014441954329419714
-2.315734268978624e-05
-0.0018836437695729236
-0.0018732598665946408
-0.003937272766512359
0.006663993088696111
0.0023879889680570093
-0.003537366670863881
-0.001692779589071449
0.007246755663751017
0.002954740924686323
-0.004701119572778061
-0.003714378296637857
0.007698061779833652
-0.006418569865015268
-0.005394314298331442
-0.003473175548917882
0.00819336204006699
-0.0012444093506661603
-0.005737545064947257
-0.001981099525810313
0.008477685199226686
-0.006960610398097397
-0.0057879553679375875
-0.003221120469635643
0.008931324861364765
-0.008878790178581763
-0.005598004169331688
-0.003011171875791316
0.009152447296793868
-0.0008291733011939557
-0.005242374090699102
-0.0022773748204607184
0.009567835863548282
-0.0027048084379865975
-0.004694731734358419
-0.0027631388390379993
-0.003874358829233247
-0.0008489120590269558
0.009933957750423812
-0.002520457662728843
-0.0022477660850020852
-0.009310636548424478
0.010133261611422171
0.0005346667003950014
-0.0011307599594044372
-0.0007263870293529744
0.010381699937287447
6.78661308075389e-05
-0.0013023744788092184
0.0031357278971424376
-0.0013613268506740754
-0.00041008591541965347
0.010532039076074445
0.005678026999260259
0.01041959445478353
-0.0007880429499825359
-6.16389129987006e-05
-0.002896431676732433
0.009771745686119004
0.0009112824431000478
0.008629670441170465
0.002534957448794068
0.006925565431212644
0.005610720630833642
0.004711844515578498
-0.009186682015704876
0.0022203948239459953
-0.00556018457218736
0.005141339372036539
0.0033489529532875453
0.0042956751843815505
0.0014868855031825317
0.0028164866344298867