# vtk DataFile Version 1.0
GRUMMP topologically 2D mesh
ASCII

DATASET UNSTRUCTURED_GRID
POINTS 4142 float
  0.9902132100051211  -0.0013897599745845   0.0000000000000000
  0.9878682672001325  -0.0017209544766007   0.0000000000000000
  0.9922830260938109  -0.0010965337451688   0.0000000000000000
  0.9852627687065505  -0.0020876945602550   0.0000000000000000
  0.9824126515147726  -0.0024873693035198   0.0000000000000000
  0.9941016532545700  -0.0008382294190312   0.0000000000000000
  0.9793229395886266  -0.0029189889321549   0.0000000000000000
  0.9759912936709813  -0.0033826574903297   0.0000000000000000
  0.9957253756688895  -0.0006072067599891   0.0000000000000000
  0.9724158418644283  -0.0038783672872607   0.0000000000000000
  0.9972114818934485  -0.0003956828894990   0.0000000000000000
  0.9685983419668763  -0.0044053177853816   0.0000000000000000
  0.9986172604849257  -0.0001958749290171   0.0000000000000000
  0.9645418982154840  -0.0049624143705746   0.0000000000000000
  0.9602493276520160  -0.0055486932126648   0.0000000000000000
  1.0000000000000000   0.0000000000000000   0.0000000000000000
  0.9557225436143375  -0.0061636003738353   0.0000000000000000
  0.9986172604763917   0.0001958749302285   0.0000000000000000
  0.0136778115501445  -0.0198442283865115   0.0000000000000000
  0.9509632892996972  -0.0068066585239019   0.0000000000000000
  0.0111799405480040  -0.0180409152078963   0.0000000000000000
  0.9972114818757430   0.0003956828920181   0.0000000000000000
  0.0164236219435115  -0.0216216850259729   0.0000000000000000
  0.9459737546847580  -0.0074771440326796   0.0000000000000000
  0.0194159763686392  -0.0233724637256901   0.0000000000000000
  0.0089312659290954  -0.0162123970812813   0.0000000000000000
  0.9957253756403164   0.0006072067640564   0.0000000000000000
  0.9353156997544615  -0.0088958032333210   0.0000000000000000
  0.0226532123065557  -0.0250954152174871   0.0000000000000000
  0.0261336316774566  -0.0267893559859237   0.0000000000000000
  0.0068429846519911  -0.0142695304151425   0.0000000000000000
  0.9237713702124288  -0.0104115615140689   0.0000000000000000
  0.0298554003449755  -0.0284531869488138   0.0000000000000000
  0.9941016532123735   0.0008382294250309   0.0000000000000000
  0.0050308200222286  -0.0123013782195995   0.0000000000000000
  0.0012596550434314  -0.0062543845982477   0.0000000000000000
  0.9113626015789812  -0.0120184565864932   0.0000000000000000
  0.0338165365583016  -0.0300859006297539   0.0000000000000000
  0.0005600587198625  -0.0041872521188657   0.0000000000000000
  0.0034956879705714  -0.0103096477045821   0.0000000000000000
  0.0380150486067802  -0.0316864834866382   0.0000000000000000
  0.0001400674572995  -0.0020989425108620   0.0000000000000000
  0.0424489169588349  -0.0332538061244847   0.0000000000000000
  0.8981160449036193  -0.0137076729882106   0.0000000000000000
  0.9922830260341767   0.0010965337536290   0.0000000000000000
  0.0022384105171692  -0.0082946477552229   0.0000000000000000
  0.0000000000000000  -0.0000000005380880   0.0000000000000000
  0.0471161050109934  -0.0347866680569130   0.0000000000000000
  0.8692172420003259  -0.0173025512123363   0.0000000000000000
  0.8840586048664243  -0.0154712341935952   0.0000000000000000
  0.8536242589802903  -0.0191927756559575   0.0000000000000000
  0.0520144653095357  -0.0362838744017245   0.0000000000000000
  0.9902132099234322   0.0013897599861408   0.0000000000000000
  0.0001400673054027   0.0020989413744649   0.0000000000000000
  0.0005600583994229   0.0041872509286527   0.0000000000000000
  0.0089312642537700   0.0162123956290166   0.0000000000000000
  0.0068429832427153   0.0142695290019493   0.0000000000000000
  0.0022384098100130   0.0082946464730838   0.0000000000000000
  0.0034956870455263   0.0103096463775504   0.0000000000000000
  0.0050308188630767   0.0123013768482443   0.0000000000000000
  0.0111799386902237   0.0180409137864515   0.0000000000000000
  0.8373107726191357  -0.0211334926288444   0.0000000000000000
  0.0624935355792051  -0.0391666954139108   0.0000000000000000
  0.9878682670932252   0.0017209544916756   0.0000000000000000
  0.0136778095139640   0.0198442269960848   0.0000000000000000
  0.8203090273240524  -0.0231167391866414   0.0000000000000000
  0.0738633143603066  -0.0418930499584099   0.0000000000000000
  0.8026551811301268  -0.0251343400368426   0.0000000000000000
  0.9852627685719384   0.0020876945791685   0.0000000000000000
  0.0861021386417074  -0.0444536409739349   0.0000000000000000
  0.7843840873894279  -0.0271778197795966   0.0000000000000000
  0.9824126513500548   0.0024873693265746   0.0000000000000000
  0.0991843265815398  -0.0468392532814141   0.0000000000000000
  0.0164236197329729   0.0216216836667636   0.0000000000000000
  0.7461418339277840  -0.0313078737465108   0.0000000000000000
  0.9793229393907722   0.0029189889597428   0.0000000000000000
  0.1130825286139299  -0.0490420520078216   0.0000000000000000
  0.7058944105034720  -0.0354399888107516   0.0000000000000000
  0.1277704618123611  -0.0510562827506626   0.0000000000000000
  0.1762568929815641  -0.0559042078350805   0.0000000000000000
  0.0194159739879911   0.0233724623981675   0.0000000000000000
  0.6639684116827792  -0.0395008026994765   0.0000000000000000
  0.1937838883744062  -0.0571083155282771   0.0000000000000000
  0.9759912934368556   0.0033826575228533   0.0000000000000000
  0.2119350336566717  -0.0581032139582273   0.0000000000000000
  0.1432165586985055  -0.0528747491799113   0.0000000000000000
  0.1593891568184451  -0.0544918670991958   0.0000000000000000
  0.0226532097601106   0.0250954139222151   0.0000000000000000
  0.6207078411914361  -0.0434191082996254   0.0000000000000000
  0.5764634620046084  -0.0471137377839725   0.0000000000000000
  0.9724158415910057   0.0038783673250912   0.0000000000000000
  0.2306739249637577  -0.0588890260835713   0.0000000000000000
  0.0261336289695199   0.0267893547234291   0.0000000000000000
  0.5315950381341085  -0.0505057454921963   0.0000000000000000
  0.4864703588817339  -0.0535094604401647   0.0000000000000000
  0.4414549182767121  -0.0560390634426787   0.0000000000000000
  0.9685983416513994   0.0044053178288238   0.0000000000000000
  0.2697570606452168  -0.0598365819607799   0.0000000000000000
  0.3969170552729402  -0.0580119076690758   0.0000000000000000
  0.0298553974799863   0.0284531857194991   0.0000000000000000
  0.9645418978552561   0.0049624144199126   0.0000000000000000
  0.3107174127482247  -0.0599745523566999   0.0000000000000000
  0.3532197168655907  -0.0593474025151865   0.0000000000000000
  0.9602493272443249   0.0055486932681955   0.0000000000000000
  0.0338165335406938   0.0300858994339835   0.0000000000000000
  0.0380150454409591   0.0316864823247920   0.0000000000000000
  0.9557225431564565   0.0061636004358678   0.0000000000000000
  0.0424489136491938   0.0332538049970267   0.0000000000000000
  0.0471161015618897   0.0347866669642923   0.0000000000000000
  0.9509632887889385   0.0068066585927330   0.0000000000000000
  0.9459737541185675   0.0074771441085412   0.0000000000000000
  0.0520144617255517   0.0362838733443521   0.0000000000000000
  0.9353156990700551   0.0088958033238094   0.0000000000000000
  0.0624935317401540   0.0391666944281135   0.0000000000000000
  0.0738633102849253   0.0418930490455120   0.0000000000000000
  0.9237713694002159   0.0104115616199952   0.0000000000000000
  0.0861021343485112   0.0444536401350998   0.0000000000000000
  0.9113626006299211   0.0120184567085017   0.0000000000000000
  0.0991843220904188   0.0468392525175462   0.0000000000000000
  0.8981160438094651   0.0137076731266115   0.0000000000000000
  0.1130825239435962   0.0490420513187447   0.0000000000000000
  0.8840586036192291   0.0154712343488011   0.0000000000000000
  0.1277704569818227   0.0510562821360933   0.0000000000000000
  0.8692172405930260   0.0173025513845012   0.0000000000000000
  0.1432165537277111   0.0528747486397878   0.0000000000000000
  0.8536242574066383   0.0191927758449732   0.0000000000000000
  0.1593891517258480   0.0544918666322352   0.0000000000000000
  0.8373107708732270   0.0211334928345504   0.0000000000000000
  0.1762568877862003   0.0559042074398506   0.0000000000000000
  0.8203090254010921   0.0231167394087162   0.0000000000000000
  0.1937838830953411   0.0571083152030304   0.0000000000000000
  0.2119350283118140   0.0581032137003017   0.0000000000000000
  0.8026551790260408   0.0251343402747870   0.0000000000000000
  0.2306739195716207   0.0588890258904683   0.0000000000000000
  0.7843840851007032   0.0271778200327233   0.0000000000000000
  0.2697570552113356   0.0598365818878674   0.0000000000000000
  0.7461418312636445   0.0313078740273454   0.0000000000000000
  0.3107174073396524   0.0599745523895525   0.0000000000000000
  0.3532197115457904   0.0593474026374948   0.0000000000000000
  0.7058944074605978   0.0354399891145804   0.0000000000000000
  0.6639684082655058   0.0395008030201497   0.0000000000000000
  0.3969170500997217   0.0580119078642495   0.0000000000000000
  0.6207078374111498   0.0434191086291270   0.0000000000000000
  0.5764634578798972   0.0471137381129498   0.0000000000000000
  0.5315950336908907   0.0505057458089039   0.0000000000000000
  0.4864703541532008   0.0535094607315534   0.0000000000000000
  0.4414549133024901   0.0560390636939180   0.0000000000000000
  0.9901595609719056  -0.0023783411927147   0.0000000000000000
  0.0326649145266362  -0.0334200843455863   0.0000000000000000
  0.9878329678703356  -0.0027145673674890   0.0000000000000000
  0.0733998606732272  -0.0440344159407381   0.0000000000000000
  0.9922372924577029  -0.0020726951087579   0.0000000000000000
  0.8846838814295012  -0.0208009306521702   0.0000000000000000
  0.9852539181750185  -0.0030832573491977   0.0000000000000000
  0.8205556230767344  -0.0253024477924150   0.0000000000000000
  0.9824277530968584  -0.0034836508822686   0.0000000000000000
 -0.0022154120548041  -0.0049277430541563   0.0000000000000000
[...]
POINT_DATA 4142
SCALARS continuity float
LOOKUP_TABLE default
0.0010399896102496775
0.0010793152098169318
0.0009787309021257943
0.0011068691293375245
0.0011264333237100232
0.0010719670768441524
0.0011429438687252502
0.0011567374236864908
0.0006236835218559619
0.0011707160928554428
0.001725593841363472
0.001187023642925147
0.03432964201560516
0.0012034344158341767
0.00122213053823848
-3.3318445780911406e-05
0.0012440133050864006
-0.03432758270955029
-0.0014056674781469452
0.0012645401562023347
-0.0011704619700818133
-0.0018731382310372036
-0.001643332617506842
0.0013010381227751314
-0.0018859244096423083
-0.0009561830801261673
-0.0007593606720589355
0.0013495190599272363
-0.0021306777953366465
-0.0023756977380508903
-0.0007571385963542072
0.0013969518470131254
-0.0026182856444901034
-0.0012114043146126588
-0.0005514324530738604
-0.0001363788757324791
0.001446919631210165
-0.0028549004179261343
-9.190457079817985e-05
-0.00037120302456773626
-0.0030874073660851027
-6.147576556866242e-05
-0.003313324218539402
0.0014898917560843407
-0.0011142969993404867
-0.0002280904576153449
-7.356020733780477e-05
-0.0035264828339581886
0.0015462522923978706
0.001515608249015175
0.0015521439049100574
-0.0037969738386473594
-0.0011762206128833146
-0.00019870203641896253
0.0005062088151041917
0.0008778124651402287
0.0006399152115168935
7.532351741022146e-05
-9.499837614092418e-05
0.0003520346457131335
0.0011325849527335176
0.0015797734361827469
-0.004141446747601836
-0.001214543207241767
0.0013916468133410081
0.0015619974906663288
-0.004538013212446921
0.0015726189759956788
-0.0012413948504287492
-0.004888207273774492
0.0015363388140708719
-0.0012601923582116134
-0.005217259028166387
0.0016477804523382582
0.0014516572981811509
-0.0012741354637600673
-0.005519058891027989
0.0012755188356073847
-0.005782308983380849
-0.006288040224547385
0.0019033623881256501
0.0010718109681791344
-0.006341899774938233
-0.0012881550073031395
-0.006350021666692521
-0.006000052933701739
-0.006169059308058117
0.0021616037283122376
0.0007977430964690918
0.00041708765683730163
-0.0013023756790489375
-0.006215091534141839
0.0024184203318284776
-8.894823040289165e-05
-0.0007373814750632881
-0.0015493414036411822
-0.0013170897217210616
-0.005693008307544372
-0.0025297511154299458
0.0026706974190979305
-0.001334332466919704
-0.004760322895154664
-0.003639671217532498
-0.001354378466163638
0.002917076243707384
0.0031596488685692336
-0.0013787252825222425
0.003394858002858472
0.003615684303446995
-0.001405653796765915
-0.0014414395402318333
0.003902875128695435
-0.001488415989753729
0.00425363620647852
0.00466525895407111
-0.001535225153473193
0.005023611955649779
-0.0015854497913664104
0.0053575730051673405
-0.0016169981823590768
0.00566113187038776
-0.001659910918333887
0.005922738988521061
-0.0016705131349146287
0.006135293076146052
-0.0017037824570521976
0.00629597424598327
-0.0016917840903394707
0.006403434295948212
-0.0017104612395365316
0.006442595213819821
0.006430928886790201
-0.00167906127036904
0.006272197404102946
-0.001674090069777472
0.005699236857413054
-0.0015970382669503141
0.004708616558221153
0.003532743227306755
-0.0014140890134947514
-0.0012052773889846059
0.0023834117165795086
-0.0009445442167164246
-0.0005802899520544538
-8.400350499878933e-05
0.0005625923696698351
0.0013816642841828935
0.0010540409718875273
-0.0037092729733775457
0.0010894439534863724
-0.004021558958094916
0.0009935427632202988
0.0017924027731749449
0.0011143723422359084
0.0016053751779911958
0.0011339024102721207
-0.0019144351476894216
0.0010541400395584443
0.003190261075117813
0.0011503280836545708
6.024076129019287e-05
0.0011644045758527604
-0.0012723046406644325
0.00015312867704918664
-0.00407251259163096
0.0011783170044793196
-0.0036481263215693656
0.001179123745046933
0.0018207940187183632
0.0011946939988096187
0.0016235356519436388
-0.01074409800958792
-0.003526317122188274
0.001210928878252908
0.003398456221362618
0.001229738163937141
-0.001626421546658223
0.0011969723928108107
-0.0012981398715454797
-0.001191567396797074
-0.00029690175960466245
-4.192352518968061e-05
0.000211665682711287
0.001083175932247607
0.0012516159685889553
0.003604715000243725
0.010597378214088514
-0.0009830836415414663
-0.001631858308658815
0.0032589478626164343
0.0012717750706279843
-0.004534264761054221
-0.0015509043771120762
0.0034949252361587317
-0.0013226418379597498
-0.003399312382947532
-0.0017532255125589083
0.0036890136432505822
0.001308853837722651
-0.001465251596172298
-0.0019113429474948303
0.0035888603469137526
-0.0015472666106004821
0.0016199413728233305
-0.0002899118939880828
0.0020184931333972005
0.001356729609807818
4.555903595325825e-05
-0.0020963210909523307
0.0011402872352337056
-0.002300654039461817
-0.001277367453168403
-0.0015729754510573136
-0.0012403799329960116
0.0014040692341185336
-0.002171276070823865
-0.0025157350255591423
-0.0033613748200426083
-0.0011948813018605189
-0.003464912853560682
-0.0016131423877087559
0.0015961861834046266
-0.0014323361702052871
-0.002802351473440595
0.0014539741550156835
0.0015605913411541078
-0.0027345828743122473
3.583873221777847e-05
-0.0011142859448901332
0.0015908430206980817
-0.0016381342857287417
-0.0017283442681823435
-0.0029578746904861965
-0.0031523357512001763
-0.0006252999381113833
-0.0033235774438992063
-0.0031813552049581094
2.1175314830833285e-05
0.0014968073790331262
-0.0014089905573515767
-0.001128245196670797
-0.0033046963305871434
-0.0015941343471783246
0.0016730477257951017
-5.8294440425929824e-05
-0.0011415404771421705
-0.0034027108586880653
5.2651936035913324e-05
0.0015529149384351777
0.0015357967620326903
0.0015222063045011976
0.0016436949297984676
0.0015585779541566064
-0.0030042983353628736
-0.003663189546629292
0.001770186678027892
-0.001190522277315734
-0.001039484956927756
0.0005101745686431604
0.0016776939759002305
0.0010834899963615098
-0.0028749095870300584
0.0014418787801312456
-0.0013086397073670379
0.0014413131923579163
-0.003670094230489648
0.001897592080108436
-0.0033270657196145586
0.0012105592242044922
-0.0019781739606691703
0.001415254161926224
-0.004870959299252008
0.0014888144155174206
-0.002776045044245264
0.0015862804073772786
-0.0013498930977397924
-0.004013844817979258
0.0014937766369687488
-0.0012247520038268967
-0.006255444918164797
0.0015982849539607012
-0.002738968480698189
0.0015683530589968866
0.0011302942213908304
-0.004418446108459694
-0.003840209533330101
0.0015775958846764846
-0.0007701554949947347
-0.0012490530711614964
-0.0011978535259587375
-0.004780485437361473
0.002043009242689401
0.0015439426122676322
-0.002717623892451496
-0.0012675926859248919
-0.0018741198412973725
-0.005120841446129854
0.0014448549017440774
0.0017407477692781607
0.005022278354286534
0.0014573849387581387
-0.003842877621798582
-0.001281670982083738
-0.005199916167142461
-0.005433110778257398
-0.002706069481322783
0.0012818555314320864
0.0047511271052919305
-0.005705772953517651
-0.0027525849077431985
-0.006234951297562634
0.0020650022527086346
0.0019151214260892959
0.001398765182542048
0.00107838501749185
0.003416346524081879
-0.006295235819713322
-0.0006306370253406212
-0.0012958186004595744
-0.003347847481885996
-0.0063094727646096785
-0.003711964411712607
-0.00593203361350685
0.0037147739853759876
-0.00610899862987495
-0.0028632769433485084
0.0021158647972754903
7.188477167003609e-05
0.0008048395808063506
0.00135235389398363
0.00042478711671632387
0.0043137059919641394
-0.0013100767216757537
-0.003035135681310269
-0.006181620313397116
-0.0015196011016957683
0.002333435996722198
-0.001514801320990653
-8.026700337092106e-05
0.0051392737854121665
-0.0007275404969222749
-0.0034862534404638537
-0.001537916988649138
0.002037369640973033
-0.0013247158907133587
0.0013164123932652037
-0.005664663134927626
0.0017046869031437134
-0.0025159070273719606
-0.003254170354527994
0.0025601054600769145
-0.0054994996999784135
-0.0013419865644287037
-0.0009992355339213028
-0.004738476737157361
-0.003391180313545137
-0.0036224561941201657
0.001297390373448363
-0.0013620506604934655
0.002399252366333506
0.0027899072810572195
0.0012762762800885776
0.003023621990545082
-0.0013751489990079158
-0.0013863412666924395
0.0012583318791093943
0.0032577514906126574
0.001731281456853004
0.0034878968447837355
0.0008552355565258143
-0.0014128642750328298
0.005123544182014394
-0.0014493502733157455
0.0012428215254804908
0.003763318625020784
0.002068248072612575
-0.0014955677578822088
0.001378183811314015
0.004122990646094521
0.0016861426374889
0.004542778926630202
0.0012271526890221588
-0.00154232409906617
-0.0021979281624582955
0.004913617590857287
0.0004935510281783877
-0.0015924921213010897
-0.0035950124460231376
0.005259337459896584
0.001213852469782109
-0.0016238660199436891
0.004840270247643677
0.005573768038695178
0.0012007169581253717
-0.0016666757219572885
0.0016954749087052677
0.005845135361771964
0.0010588646974047284
-0.001677150801388463
-0.0038544160502525645
0.0060664188347444355
0.001184833168865013
-0.0017103790244486976
-0.0014003812156718166
0.00623511188799116
0.0011664347879798225
-0.0016982552063957719
-0.005877404656941845
0.006349819393633842
0.0010070763428782635
-0.0017168818217687342
-0.003845423340835455
0.0063953895819211645
0.0011376175242073874
0.006390082801116164
-0.0014011767072774329
-0.0016842260547844218
0.0011046384517567277
0.006238350859033632
0.0016625275175282327
-0.0016818497709675917
-5.255792529548398e-05
0.005670711240802929
-0.006681198044771266
-0.0016029284008812813
-3.482580166782633e-05
0.004686551622837928
-0.00141659641495717
0.003515355745144406
-5.592529945753066e-05
-0.0014206430066476903
-0.0057543038880469525
-0.0012120487729859295
-7.539080322487707e-05
0.0023693445271946003
-0.004140759676487106
-0.000951855388127329
3.934456838345133e-05
-0.0005881810338314018
-0.0016909167628865046
-9.285577922636349e-05
-0.0036186537130358707
0.000552498327470263
0.004986808728263552
0.0013699539375789456
-0.00015870132044976484
0.0016144545727478777
0.0020167076929046186
-0.0013005213400726556
0.0015792483756422273
-0.0043785373871175525
0.0018245747459757536
0.0015814190018441014
-0.00274522723396403
-0.0013180531597452424
-0.0013178740492008076
-0.004729833257160852
-0.004564347692094031
0.002992813732089067
-0.004201381146811588
0.0014951692069205852
-0.001271999340983434
-0.0013317129507820372
-0.006469738972092463
-0.0050617172949409765
-0.00394864464517894
0.0013207852832178275
-0.0014941554646433243
-0.005358576060752206
0.0015318920801875833
-0.005968721363527304
-0.006926092538819944
0.0028395643267377225
-0.0049339247298346
0.0011189581279371372
0.0009246871581504756
-0.006055927614337784
-0.0042303285303736055
-0.0013452635485242908
-0.0005960916656047403
-0.006092953232678948
-0.004529353221726746
-0.005611189713367792
0.0016310695132710031
-0.005815161329550147
0.0014876596904632464
0.0027467280151713363
-0.002205936877763497
0.000848072214173678
-0.0009196633092786395
0.0004720034852908982
0.004640845404086201
-0.001358777005624521
-0.005168130104733869
-0.005997807754135022
-0.006567443078556916
0.002716877303539873
-0.004819112015289202
-2.7707074397261813e-05
0.0018109580835796893
-0.0006675299160034204
0.0014423963777873631
-0.001467866295940591
0.004157579613938193
-0.0013728981607334905
-0.0050580078943478525
-0.005510932331238782
0.0024470261261769835
-0.0024323176370575285
-0.0010677498160792233
0.0027421470933271025
0.0026359593036378074
-0.0013894725178879332
-0.005250388866391087
-0.004613729606193592
-0.0025700656422868117
-0.0035208248261861413
0.0014083936779190679
-0.00140863591142439
0.0030638700483460383
0.002813581146339085
-0.005213084856656713
0.0029248371223937917
8.458377523019585e-05
-0.0014318009194838437
0.0007562555456846286
0.0030663145297003254
0.0036329438658332324
0.003224119105892808
0.0013908362270287084
-0.0014569351996586877
-0.001190553165535789
-0.0014921035088065247
0.0013711729221480872
0.0034504633261336994
0.00507716269882829
-0.0015370920781656867
0.0013545436004902837
0.0037475239971336395
0.002419162403242395
0.0041385288926547555
-0.0009011231228854917
-0.0015826795140965095
0.0018512781158742963
0.004505874504010896
0.0013401046223377186
-0.0016319838154337041
-0.0065435351599121465
0.004863977577605744
0.0009219458523140338
-0.0016627421533433537
-0.0038818784032350305
0.005199143206699338
0.0013253972322949442
-0.0017048554456551054
0.0029657798253979344
0.005495633430839787
0.0007828627456385653
-0.0017149414097241652
-0.0015211785719831915
0.005744163705858467
0.0013127256459597532
-0.001747825726641442
0.0019795617928367705
0.005940523361643164
0.0013002616349717905
-0.0017353838322287443
0.005446832164826305
0.006083221888454795
0.0011336659942727072
-0.0017539983067994074
0.002450985120013951
0.006156259072189355
0.0012847673149424398
0.006173876596006743
0.0018328687214134276
-0.001721079771365575
0.0012681019591244366
0.006054934137577978
-0.001716835797274817
-0.0017194139542825483
0.0011448691783314483
0.005517547959131546
-0.0036912861751900584
-0.0016407579797780738
0.0012420793416607911
0.0045624218595469125
-0.003624529175388176
0.003413904741829433
0.0012159733869749826
-0.0014597737386194804
0.0018428756207526534
-0.0012529880939501938
-0.00016660140466449966
0.0022859077061093765
-0.0029389807483392464
-0.0009953012396039709
-5.986122482481215e-05
-0.0006356401089059086
-0.0015509721166021592
-0.00014571503823555931
4.7519001529124385e-05
0.0004922283599188655
-0.0070036953365409825
0.0012997335029040647
-7.119023236551243e-05
0.0016858934513252334
0.0015782251527589437
-0.006098901536819567
-0.0014299596707174345
-0.004334836827512673
-0.004452563153549263
0.0007483479789467691
0.0014063304148699124
-0.0059315674016772275
-0.004753295446812866
-0.00047140725001351615
-0.005450105499543623
-0.006006503719176693
0.004762821189407642
0.0012947646120731692
0.0012083836065196838
0.0016439016067029669
-0.005577616959314814
-0.002649621324439306
-0.0014433906110970813
-0.0010662525843784499
-0.0056550427118972
0.003559538417586795
-0.005025589356044641
-0.00478670706289953
-0.005259580758665968
-0.006352742860103189
0.004490614887828396
-0.005968527412632071
0.0009436286415503279
0.0031568025325896315
0.0005762530637307529
-0.005810882437302519
-0.0014565340508172614
0.00301741291582723
-0.00561256523125582
-0.0012600004808406675
0.004206063035843906
0.001995153874579791
8.85279661654691e-05
-0.00519492886243101
-0.0005353068483899603
-0.00201674609741186
-0.001314271859715375
0.0015683093384735462
-0.001469856932275832
0.0023682723193626386
-0.0051879611492263895
-0.005547511094460986
-0.002250300082446839
-0.0008466232485540853
0.003939625569324932
-0.0002731814714881603
-0.0014854570940649105
0.002767103847349859
-0.004347387577499649
0.0015531636777441047
-0.0033014807715537066
-0.0009565776959849127
-0.001503243387330273
0.00153537149783703
0.003714104662508701
0.003988522510470653
0.0035452490624891093
0.0015201682314368837
-0.0015249411224624947
0.0029870675676381873
0.003432447335387192
0.00014432090767407384
0.0033696697678847446
0.002095426389247088
-0.0015484499722888568
0.0015067475785975812
-0.0015814979951616925
-0.0015951596808810658
0.0033921474248796222
-0.005956952236079142
-0.0016252895884305112
0.0011226840223230467
0.0034702547480215083
-0.005421622362616466
0.0036949839393997756
0.0014922399933914121
-0.001669212377067275
0.0037571495751898185
0.00395905998393802
0.0009348079754566214
-0.001717166374855227
-0.0017208634492672577
0.004264070850446972
0.0014787891493027202
-0.001746590478773745
0.002363169918500197
0.004581619376694687
0.0014640284460649465
-0.0017878344988809974
0.004441242200910797
0.004884264683696645
0.0012693966210804717
-0.0017969420695599808
0.00302423856554774
0.005154182571079262
0.001444112232074416
-0.0018293041599771452
0.0020777792668927597
0.005382124858944311
0.0014229329793863715
-0.0018165101391283648
-0.00137808763285523
0.0055632203540315305
0.0012805040535738591
-0.0018351299265112414
-0.004862865691727739
0.0056774336175555995
0.0013911522131038136
0.005736254317646758
0.004797303008698823
-0.0018024050313302186
0.001364146897219268
0.005670822124112833
0.0020900264525308167
-0.0018007640840689877
-0.0002475516499375985
0.00519614380317925
-0.002266886090251135
-0.0017241650437455657
-5.936026560516622e-05
0.0042975734398292675
-0.0017553471990212298
0.003195658893053059
0.0001299062236598035
-0.0015459441862184682
-0.006623044683561264
-0.0013431116317509136
0.0003051801357672356
0.0021042231522084274
-0.004336986268304942
-0.0010916494079123793
-0.0004270898239107464
-0.0007405309584542462
-0.0018343838911351396
-0.0002625494568155565
-0.0017379062722532607
0.00035962588484817853
0.0020606911912851326
0.0011461576576511482
0.001599392239871373
-0.005556438215677535
-0.0015709248718778041
-0.006408016698920785
-0.0036758057872258486
-0.0019346207892896041
0.005725405882139067
0.001936325676961276
0.0017303973198120402
-0.004708729557525315
-0.0015892178322068
-0.003304417891008971
-0.003826686739880652
0.0006262908086716106
0.0015638790718050465
-0.006166395432015764
-0.004029307415449242
-0.0003879981359220286
-0.004671138198564718
-0.005831842619316442
0.005894276728250134
0.0010811436700189363
0.0013739704949398321
0.0018959096206296647
-0.0048273013074285
-0.0025823167448780224
-0.0016064631770172587
-0.0014168964841290794
-0.0049445391537006654
0.002646818880196788
-0.004250921829321607
-0.0036856861640035725
-0.0044696017330334206
-0.0050515198464864625
0.00594596368042911
-0.005432274500817481
0.0011211465934702941
0.0023914032557879675
0.0007702408623759794
-0.0049876290298267725
-0.0016218411915053274
0.003819275673110223
-0.004967812344764811
-0.0013791300496531723
0.00588119161580177
0.0015783506851453036
0.00030453015163307617
-0.0040952926885293285
-0.00029036587224533315
-0.0016976795319377032
-0.0010315128062751888
0.0018244108913093085
-0.0016356285961413482
0.0018798079467486938
-0.004631562403171497
-0.004536743293389366
-0.0019184674166353721
9.287682644320803e-05
0.005714407423862163
-0.0008651658798102098
-0.0016503841609008304
0.002145383417283038
-0.003878275397328872
0.0018116521426104501
-0.0029075639103166356
-0.000808101464812728
-0.0016669517023531852
0.0017957229207903878
0.005470671446297995
0.0029354745503651558
0.005182614181530735
0.0017815638970756502
-0.0016867583588836886
0.003783407250244493
0.004866432669022884
0.0007313448528867515
0.004542809824392414
0.002480396429523091
-0.0017079285983690128
0.0017674462073955862
0.004230083590391029
-0.004581475989880696
-0.0017807458210605013
0.0012415933056355204
0.003927698544856827
-0.006957942638903064
0.003761049785517575
0.001750130342123573
-0.0018227184442280416
-0.002595959523748976
0.003706571968134709
0.0012912274783345474
-0.0018687902135017748
-0.0019717385431220116
0.003777555223637242
0.0017305386624350075
-0.0018966046408595446
0.0029279518012174104
0.003938337415441746
0.001705633279803022
-0.0019366245140678493
0.0032687004399489577
0.004146386308995218
0.001470957192511481
-0.0019445602107870817
0.003831181410479758
0.004369067637457978
0.0016711438497253287
-0.0019766106024767037
0.002465190662874239
0.004584940590066741
0.0016347218204559864
-0.0019634083352152694
-0.0011717855774019395
0.004779615065889269
0.0015028330407385487
-0.0019823503337908725
-0.006626624632581676
0.00492477045026065
0.0015943562603186556
0.005025308810492065
-0.0012004788527478203
-0.001950376783000575
0.0015646339172952668
0.005027571547189541
0.002481526271847438
-0.0019498424380957715
-0.0004661393841789297
0.004642766499899017
-0.0018815408682160166
-0.0018773935889892038
-6.073830140108963e-05
0.0038317373433553264
-0.0020165120619000908
0.002804296192926863
0.00034449975807258773
-0.0017046158703096046
-0.005300149320720815
-0.0015100182395314746
0.0006022580856721848
0.0017738402812554712
-0.0060409817107681925
-0.001270335841024388
-0.0007263545740182308
-0.0009357088320882924
-0.002159132635038557
-0.0004793543582084807
-0.0019895318978957795
0.00011431858670530956