# vtk DataFile Version 1.0
GRUMMP topologically 2D mesh
ASCII

DATASET UNSTRUCTURED_GRID
POINTS 4142 float
  0.9902132100051211  -0.0013897599745845   0.0000000000000000
  0.9878682672001325  -0.0017209544766007   0.0000000000000000
  0.9922830260938109  -0.0010965337451688   0.0000000000000000
  0.9852627687065505  -0.0020876945602550   0.0000000000000000
  0.9824126515147726  -0.0024873693035198   0.0000000000000000
  0.9941016532545700  -0.0008382294190312   0.0000000000000000
  0.9793229395886266  -0.0029189889321549   0.0000000000000000
  0.9759912936709813  -0.0033826574903297   0.0000000000000000
  0.9957253756688895  -0.0006072067599891   0.0000000000000000
  0.9724158418644283  -0.0038783672872607   0.0000000000000000
  0.9972114818934485  -0.0003956828894990   0.0000000000000000
  0.9685983419668763  -0.0044053177853816   0.0000000000000000
  0.9986172604849257  -0.0001958749290171   0.0000000000000000
  0.9645418982154840  -0.0049624143705746   0.0000000000000000
  0.9602493276520160  -0.0055486932126648   0.0000000000000000
  1.0000000000000000   0.0000000000000000   0.0000000000000000
  0.9557225436143375  -0.0061636003738353   0.0000000000000000
  0.9986172604763917   0.0001958749302285   0.0000000000000000
  0.0136778115501445  -0.0198442283865115   0.0000000000000000
  0.9509632892996972  -0.0068066585239019   0.0000000000000000
  0.0111799405480040  -0.0180409152078963   0.0000000000000000
  0.9972114818757430   0.0003956828920181   0.0000000000000000
  0.0164236219435115  -0.0216216850259729   0.0000000000000000
  0.9459737546847580  -0.0074771440326796   0.0000000000000000
  0.0194159763686392  -0.0233724637256901   0.0000000000000000
  0.0089312659290954  -0.0162123970812813   0.0000000000000000
  0.9957253756403164   0.0006072067640564   0.0000000000000000
  0.9353156997544615  -0.0088958032333210   0.0000000000000000
  0.0226532123065557  -0.0250954152174871   0.0000000000000000
  0.0261336316774566  -0.0267893559859237   0.0000000000000000
  0.0068429846519911  -0.0142695304151425   0.0000000000000000
  0.9237713702124288  -0.0104115615140689   0.0000000000000000
  0.0298554003449755  -0.0284531869488138   0.0000000000000000
  0.9941016532123735   0.0008382294250309   0.0000000000000000
  0.0050308200222286  -0.0123013782195995   0.0000000000000000
  0.0012596550434314  -0.0062543845982477   0.0000000000000000
  0.9113626015789812  -0.0120184565864932   0.0000000000000000
  0.0338165365583016  -0.0300859006297539   0.0000000000000000
  0.0005600587198625  -0.0041872521188657   0.0000000000000000
  0.0034956879705714  -0.0103096477045821   0.0000000000000000
  0.0380150486067802  -0.0316864834866382   0.0000000000000000
  0.0001400674572995  -0.0020989425108620   0.0000000000000000
  0.0424489169588349  -0.0332538061244847   0.0000000000000000
  0.8981160449036193  -0.0137076729882106   0.0000000000000000
  0.9922830260341767   0.0010965337536290   0.0000000000000000
  0.0022384105171692  -0.0082946477552229   0.0000000000000000
  0.0000000000000000  -0.0000000005380880   0.0000000000000000
  0.0471161050109934  -0.0347866680569130   0.0000000000000000
  0.8692172420003259  -0.0173025512123363   0.0000000000000000
  0.8840586048664243  -0.0154712341935952   0.0000000000000000
  0.8536242589802903  -0.0191927756559575   0.0000000000000000
  0.0520144653095357  -0.0362838744017245   0.0000000000000000
  0.9902132099234322   0.0013897599861408   0.0000000000000000
  0.0001400673054027   0.0020989413744649   0.0000000000000000
  0.0005600583994229   0.0041872509286527   0.0000000000000000
  0.0089312642537700   0.0162123956290166   0.0000000000000000
  0.0068429832427153   0.0142695290019493   0.0000000000000000
  0.0022384098100130   0.0082946464730838   0.0000000000000000
  0.0034956870455263   0.0103096463775504   0.0000000000000000
  0.0050308188630767   0.0123013768482443   0.0000000000000000
  0.0111799386902237   0.0180409137864515   0.0000000000000000
  0.8373107726191357  -0.0211334926288444   0.0000000000000000
  0.0624935355792051  -0.0391666954139108   0.0000000000000000
  0.9878682670932252   0.0017209544916756   0.0000000000000000
  0.0136778095139640   0.0198442269960848   0.0000000000000000
  0.8203090273240524  -0.0231167391866414   0.0000000000000000
  0.0738633143603066  -0.0418930499584099   0.0000000000000000
  0.8026551811301268  -0.0251343400368426   0.0000000000000000
  0.9852627685719384   0.0020876945791685   0.0000000000000000
  0.0861021386417074  -0.0444536409739349   0.0000000000000000
  0.7843840873894279  -0.0271778197795966   0.0000000000000000
  0.9824126513500548   0.0024873693265746   0.0000000000000000
  0.0991843265815398  -0.0468392532814141   0.0000000000000000
  0.0164236197329729   0.0216216836667636   0.0000000000000000
  0.7461418339277840  -0.0313078737465108   0.0000000000000000
  0.9793229393907722   0.0029189889597428   0.0000000000000000
  0.1130825286139299  -0.0490420520078216   0.0000000000000000
  0.7058944105034720  -0.0354399888107516   0.0000000000000000
  0.1277704618123611  -0.0510562827506626   0.0000000000000000
  0.1762568929815641  -0.0559042078350805   0.0000000000000000
  0.0194159739879911   0.0233724623981675   0.0000000000000000
  0.6639684116827792  -0.0395008026994765   0.0000000000000000
  0.1937838883744062  -0.0571083155282771   0.0000000000000000
  0.9759912934368556   0.0033826575228533   0.0000000000000000
  0.2119350336566717  -0.0581032139582273   0.0000000000000000
  0.1432165586985055  -0.0528747491799113   0.0000000000000000
  0.1593891568184451  -0.0544918670991958   0.0000000000000000
  0.0226532097601106   0.0250954139222151   0.0000000000000000
  0.6207078411914361  -0.0434191082996254   0.0000000000000000
  0.5764634620046084  -0.0471137377839725   0.0000000000000000
  0.9724158415910057   0.0038783673250912   0.0000000000000000
  0.2306739249637577  -0.0588890260835713   0.0000000000000000
  0.0261336289695199   0.0267893547234291   0.0000000000000000
  0.5315950381341085  -0.0505057454921963   0.0000000000000000
  0.4864703588817339  -0.0535094604401647   0.0000000000000000
  0.4414549182767121  -0.0560390634426787   0.0000000000000000
  0.9685983416513994   0.0044053178288238   0.0000000000000000
  0.2697570606452168  -0.0598365819607799   0.0000000000000000
  0.3969170552729402  -0.0580119076690758   0.0000000000000000
  0.0298553974799863   0.0284531857194991   0.0000000000000000
  0.9645418978552561   0.0049624144199126   0.0000000000000000
  0.3107174127482247  -0.0599745523566999   0.0000000000000000
  0.3532197168655907  -0.0593474025151865   0.0000000000000000
  0.9602493272443249   0.0055486932681955   0.0000000000000000
  0.0338165335406938   0.0300858994339835   0.0000000000000000
  0.0380150454409591   0.0316864823247920   0.0000000000000000
  0.9557225431564565   0.0061636004358678   0.0000000000000000
  0.0424489136491938   0.0332538049970267   0.0000000000000000
  0.0471161015618897   0.0347866669642923   0.0000000000000000
  0.9509632887889385   0.0068066585927330   0.0000000000000000
  0.9459737541185675   0.0074771441085412   0.0000000000000000
  0.0520144617255517   0.0362838733443521   0.0000000000000000
  0.9353156990700551   0.0088958033238094   0.0000000000000000
  0.0624935317401540   0.0391666944281135   0.0000000000000000
  0.0738633102849253   0.0418930490455120   0.0000000000000000
  0.9237713694002159   0.0104115616199952   0.0000000000000000
  0.0861021343485112   0.0444536401350998   0.0000000000000000
  0.9113626006299211   0.0120184567085017   0.0000000000000000
  0.0991843220904188   0.0468392525175462   0.0000000000000000
  0.8981160438094651   0.0137076731266115   0.0000000000000000
  0.1130825239435962   0.0490420513187447   0.0000000000000000
  0.8840586036192291   0.0154712343488011   0.0000000000000000
  0.1277704569818227   0.0510562821360933   0.0000000000000000
  0.8692172405930260   0.0173025513845012   0.0000000000000000
  0.1432165537277111   0.0528747486397878   0.0000000000000000
  0.8536242574066383   0.0191927758449732   0.0000000000000000
  0.1593891517258480   0.0544918666322352   0.0000000000000000
  0.8373107708732270   0.0211334928345504   0.0000000000000000
  0.1762568877862003   0.0559042074398506   0.0000000000000000
  0.8203090254010921   0.0231167394087162   0.0000000000000000
  0.1937838830953411   0.0571083152030304   0.0000000000000000
  0.2119350283118140   0.0581032137003017   0.0000000000000000
  0.8026551790260408   0.0251343402747870   0.0000000000000000
  0.2306739195716207   0.0588890258904683   0.0000000000000000
  0.7843840851007032   0.0271778200327233   0.0000000000000000
  0.2697570552113356   0.0598365818878674   0.0000000000000000
  0.7461418312636445   0.0313078740273454   0.0000000000000000
  0.3107174073396524   0.0599745523895525   0.0000000000000000
  0.3532197115457904   0.0593474026374948   0.0000000000000000
  0.7058944074605978   0.0354399891145804   0.0000000000000000
  0.6639684082655058   0.0395008030201497   0.0000000000000000
  0.3969170500997217   0.0580119078642495   0.0000000000000000
  0.6207078374111498   0.0434191086291270   0.0000000000000000
  0.5764634578798972   0.0471137381129498   0.0000000000000000
  0.5315950336908907   0.0505057458089039   0.0000000000000000
  0.4864703541532008   0.0535094607315534   0.0000000000000000
  0.4414549133024901   0.0560390636939180   0.0000000000000000
  0.9901595609719056  -0.0023783411927147   0.0000000000000000
  0.0326649145266362  -0.0334200843455863   0.0000000000000000
  0.9878329678703356  -0.0027145673674890   0.0000000000000000
  0.0733998606732272  -0.0440344159407381   0.0000000000000000
  0.9922372924577029  -0.0020726951087579   0.0000000000000000
  0.8846838814295012  -0.0208009306521702   0.0000000000000000
  0.9852539181750185  -0.0030832573491977   0.0000000000000000
  0.8205556230767344  -0.0253024477924150   0.0000000000000000
  0.9824277530968584  -0.0034836508822686   0.0000000000000000
 -0.0022154120548041  -0.0049277430541563   0.0000000000000000
[...]
POINT_DATA 4142
SCALARS continuity float
LOOKUP_TABLE default
-0.000977264651754544
-0.001671668520006737
-0.00020883123952668295
-0.0021407055098401156
-0.002501886461796915
0.001186128660001724
-0.0027527328088562783
-0.002955820671616756
0.004249290681163877
-0.0031138840647108807
-0.003925484771228918
-0.0032251604396478046
-0.004548932809970292
-0.003344374149172969
-0.0034164504978345237
-0.00025197184790091086
-0.003490312069241742
0.0003346805542107505
-0.0033608361108627234
-0.0036062588673438658
-0.00392216161941387
0.00388775050413534
-0.0028917404808500064
-0.0036677202306979093
-0.0024740850629247735
-0.004367149639021447
-0.004248357082334884
-0.0037086249203217548
-0.002151300411093301
-0.0019002857132076434
-0.0048932449910595865
-0.003689527213769812
-0.0017227985143455891
-0.0013032159396900596
-0.005172462313987762
-0.0041307158317896555
-0.0037767040321610465
-0.0016197317993967247
-0.002994117813625207
-0.005204157791857047
-0.001552511648708866
-0.0014298150009306703
-0.0015210547568369215
-0.0038598719331316127
0.00020024961529806432
-0.004849947773446442
0.00011953013448570856
-0.001513407490760432
-0.003997532469400798
-0.003929474393813406
-0.003917647506842236
-0.0015026452294163925
0.0009067824222915936
0.0006846475486148775
0.005405800144962025
0.004632642425983881
0.005106384191953314
0.0031582265484229243
0.006195698137491004
0.0055704212822257375
0.0041611704390642525
-0.00376832725941424
-0.001559398264070466
0.0015639123689026406
0.0036507271238299267
-0.003605291405298727
-0.00187988955443749
-0.003353702393060582
0.002005675267290195
-0.002142782278049131
-0.003281726115939103
0.0023409700888581296
-0.002332612401503886
0.0031804595669574676
-0.002882980401128105
0.0025973569423360346
-0.0024279190140174115
-0.0022250313033573706
-0.00241218600354738
-0.0015539938682413738
0.0027656014601983663
-0.0011160252554996304
-0.0009120506105417875
0.002772630548178286
-7.720561868453449e-05
-0.002263963842059461
-0.0019788222547530467
0.002426039638964788
0.0005978640669694335
0.003054517770525343
0.0029062536968976153
0.0013276729827814806
0.0021453353618039526
0.00608112507573526
0.009055992237023214
0.010990492896626769
0.0030271699707216148
0.003736264238441051
0.011109999850770722
0.0019461022749144353
0.003104944517400424
0.006636814070771958
0.00939889489115283
0.0031965354821686174
0.001802197038182048
0.0017136946161700915
0.003249449181121541
0.0016425232359950981
0.0016723668664021317
0.0033010959351292167
0.003402571588228703
0.001423764161505698
0.0034525924395918148
0.001655320330955036
0.001803081411080235
0.0034365963014926265
0.0020493752929799437
0.003446652792321545
0.0022273006717256987
0.003550503679795034
0.0023144523013605076
0.0036493852751913066
0.0022957809920196894
0.003665370646050619
0.002146383487928059
0.003584920463593998
0.0018694747122358984
0.0034258014174446045
0.0014560687856553566
0.003176905051304369
0.0008400699488009579
8.00046212169499e-05
0.002941664891101757
-0.0013493546785325516
0.002852605230702267
-0.0035795022545061215
0.0025915939625608796
-0.006492436483292901
-0.009338311058257961
0.001862251065191737
0.0006550326552756368
-0.0112673307120559
-0.001079050969540951
-0.003538932028692917
-0.0065819828630360325
-0.009526664913854163
-0.011353082094190142
-0.0009922990188281624
-0.0029820324977311587
-0.0017290138126007863
-0.0010653489258616014
-0.0005044778384842628
-0.00351123219422272
-0.002164383289184224
-0.003548701097298381
-0.0025201349499263718
-0.0011566647124937178
0.0011662265451041506
0.005324365577404127
-0.0027643257134149554
4.6209035965374034e-06
-0.002961685477528957
0.0015836938591006389
0.00217671832727432
-0.001914460011204755
-0.0031193631853879454
-0.0007391416332244611
0.001762340578546608
-0.003586079974035683
-0.003229573013161192
-0.0037046885823248973
0.014307187653821541
-0.002439789519616137
-0.003349001370955631
0.005908548153315061
-0.003418993061888213
0.0006456614903568532
-1.577382245793776e-05
-0.002963563504719313
-0.0008038323511961496
-0.00029805827437016236
-0.0008466587701507339
-0.0013335732638882593
-0.0006362190009842227
-0.0034873486495751397
0.0063232228486813785
-0.01479679658629677
-0.0006173891369392232
-0.002933533053513994
0.006163244952533362
-0.0036036070434053488
-0.0035483119320252926
-0.0036490726183912216
0.004564126390828212
-0.0031072926381653437
-0.0019303659548245745
-0.002370041570204317
0.006395480562582492
-0.0036605197939971225
-0.0007442123522671127
-0.0019222649748711364
0.00627067215761334
-0.0043999453920689
-0.0036454620055572334
-0.0020411451395173177
0.0035867369313467043
-0.0036988644533895495
-2.5518478590624903e-05
-0.0016008680846685362
0.001137542624969391
-0.001383007395305618
0.000589578777682414
-0.005236544955026602
0.001017387531074953
-0.003681006654597601
-0.00021730397972108986
-0.0012401348867123177
-0.0007896638077249904
-0.0013966415102989592
-0.0017507358651099219
-0.00589574147444172
-0.003854568348559297
-0.005378218432869371
-0.0003757325498137239
-0.0037682630907582043
-0.003861742534978133
-0.0011732579744890396
-4.247334016022801e-05
-0.004023009894547156
-0.003930415834917715
-0.006256313672543125
-0.0005074088115686136
-0.0011516376805425245
-0.0007898504967374717
-0.00208712266258371
-0.0014341006791988872
-0.0011623969362091816
9.526449102064636e-06
-0.003851489753761851
0.00046520357480748657
0.000491172865923152
-0.004900994633278056
-0.006113587648392196
-0.0037986881165705567
0.00013858502255070007
0.00019540609399615525
-0.0011746218997478102
6.296809240712996e-06
-0.003994202419492733
-0.0037864726935208665
-0.0039293481641043465
-0.003725758338190388
-0.003915112986854839
-0.0009052638065756505
-0.0012466725594010718
-0.003424717622760133
0.0008996622432362709
-0.001441283688850761
0.0016019577883145833
-0.0037252009663202037
0.004941566767009582
-0.001043625555722036
0.004882788624822315
-0.0008386293719040133
0.005644053486703542
-0.005541284090932833
0.005597230593383546
-0.0010800352991357292
0.00713607928167309
-0.002847779945859962
0.006462321038404845
-0.003958640236796451
0.0041597608833825
-0.0012778060497644524
-0.0037653069843076245
0.001073581031818823
-0.001307454978415509
-0.003701602293039038
0.0016154319321622548
-0.003655322110269307
0.003511113908538348
-0.003992846874633675
-0.0036058739967974704
0.00038671814165010227
-0.0016763399594801043
-0.00591781835325813
-0.003355246205056868
-0.00033132911606711897
0.00202487423512185
-0.000514645366384728
-0.0019796979843438684
0.001360213831809593
-0.0032777280605531434
-0.0016077300091597135
0.0023560803738403207
0.0006072777239204422
-0.00220506679141078
-0.003607145668602076
0.002969822582490724
0.0032741395896929725
-0.002885790102692926
-0.006042638392879852
0.00260566033029481
-0.004083850822791475
-0.002326976417262659
-0.00205447284111827
-0.002228263920241791
0.0027817120398854803
-0.0023335756488788747
-0.0026407658763539467
-0.0015172570179490658
-0.003278720271640492
0.0025313242636445157
-0.0036217562914922343
-0.0011199349125739168
0.0014723842309088144
-0.0008863692292709705
-0.005067400087476244
0.0027794189261623383
-2.134930370927427e-05
-5.2354937671465654e-05
-0.0058467980120459374
-0.0022010723423978302
0.0023333035817895103
-0.001930970378561504
-0.0033296742342494583
0.0021937166289979692
-5.120691636895862e-06
0.0005949207174674506
-0.0035742164376134306
0.003049781820209928
0.002484969514051121
0.0029100245454478763
-0.004067870840190894
0.0013224695229770954
-0.0005627330904273848
0.0019411287114093202
0.001172922414479915
0.0060768146279122385
0.0038255453675932823
0.0090524133252318
-0.0054498160803382
0.010987452935628039
-0.0031973250474828592
0.003031578771420134
-0.0035104993107357013
0.003745049673787235
-0.0035815410933507713
0.011109078738120096
-0.004812961467246751
0.0017526477190706311
-0.003964379062834264
0.003107171466558736
-0.02483183563784537
0.006638787483089616
-0.0006092542025910258
0.009400235956700859
-0.003393719885270917
0.0031970612412800564
-0.002702689431207962
0.001636225423694999
-0.0033213533111290574
0.0015621973922294915
0.0015388027604094838
0.0032482747427207866
-0.0032480926491799786
0.0015092260268127866
-0.003326287375485667
0.0015131347078153727
0.027270645055698546
0.003294682669860476
0.004355130872311651
0.0033912821448354663
-0.003125666820034745
0.0014032894241071468
-0.003219449383141725
0.0034438508448216437
-0.0015638200281616985
0.0015520279745097928
-0.003430997700800345
0.0017356218699092578
-0.003012507205398094
0.0034276603704638375
-0.0005753233224788983
0.001998817109853557
0.00534052030766756
0.0034366189002668656
-0.0006187251643599769
0.0021915247966285
-0.0028600128809193677
0.003539941381777785
-0.0018846601658041313
0.0022898813356864146
-0.002670292202231921
0.0036427674814634536
-0.003187275189945748
0.0022797997105099355
0.00040991803673238954
0.0036586765308425553
0.0004049950789909156
0.0021381751905416493
-0.0024416813635138417
0.003580716957982289
0.001871879498688582
0.001865501944715806
-0.0021201897546039706
0.003424146281477051
-0.004165798360871276
0.001457837240538721
-0.00020196992055723244
0.003174313318556954
-0.0006894178863988659
0.0008416172770547054
-0.001704306984056205
7.781290439965209e-05
0.00011520123675476486
0.0029420783345761575
-0.0011112309777701133
-0.0013218371605758059
-0.0031165322369720067
0.002849873629207243
-0.0005997651869342912
-0.003576640609169673
0.0014648597438848474
0.0025927909237004683
-0.0034543523480793465
-0.006484260780575998
0.0021348898550290333
-0.00933241938852075
-4.83054587750137e-06
0.0018634728655350622
-0.003569638191989785
0.000659444944284129
0.0033956322752066582
-0.01126119433448282
-0.0008076318225350291
-0.0010750821235228033
0.004233289730660128
-0.003534981543489468
0.001037447486013966
-0.00657619827042162
-0.000986371325819158
-0.00952044803384828
0.004745086382016415
-0.011348900005365236
-0.004573913455652242
-0.003300551606332123
-0.0031053029333822737
0.001975457801606396
-0.0035563298869691097
-0.001364020776222587
-0.0035197643134057825
-0.0032275996713615395
-0.0015241067216755042
0.0022746888141608177
-0.0006173373900925637
-0.0016102234098863588
-0.0021143964350948015
0.004630303704919648
-0.0029700458103989465
-0.0028320174697012055
-0.00023926734021664764
0.0025102262579988453
-0.002869863160114994
-0.0017764575196016854
-0.003510316344071463
-0.0021766668820768346
0.0010869157929517517
-0.001833734643974124
-0.0034593566879415937
-0.0011870400603116128
0.0001651974459276941
0.003889534497945898
-0.0024465474730865845
-0.0010682109944690297
0.00020694432735262358
-0.0006098301354050368
-0.003952605008071031
0.002674103705393649
-0.0003039335758622423
0.00017497073689973957
-0.004265511659957301
-0.0017575355842441766
0.0005737644188223469
-0.0015426669751764553
-0.003464523580167772
0.0031907596963967728
0.0005988752889419098
0.0006507101792166497
-0.0009957624636879401
0.0031131427924912074
-0.0005223262814120826
0.002803087826994665
-0.0028584313874787204
0.0015104452586460224
-0.00186640889933035
0.002601364685985328
-0.004340651863716779
0.006149896194557315
-0.0029248994399703053
0.00913711089341626
-0.003410347270146978
0.01108479411838642
-0.0004131977898933881
0.002924125270298459
-0.004206841874455761
0.003892491709103817
-0.002885040508414074
0.011212788908786965
-0.001493037354750427
0.002110944008182812
0.00032770334892988785
0.0030022700376574328
-0.0033905473517607475
0.006760508913265794
0.00024493919695791017
0.009511735485435746
-0.003345983118369294
0.003094958094862692
0.0003581123454693307
0.0017500506455318614
-0.0038550458230457514
0.0014745969303986803
3.4551729290043545e-06
0.0031518115289078602
-0.0021589189239750494
0.0012719661045108913
-8.220133579952196e-05
0.0011627636025780535
-0.003222884668779393
0.0032051889285428566
-0.00048033840921774646
0.0033082727016191917
-0.003146619804970207
0.0009809629715511186
-0.00034937058527021846
0.0033649978792555184
-0.0030703445570117926
0.001026448891112025
-0.00279920743964159
0.0011577166745305074
0.002646500032788672
0.0033583013763907963
-0.0033826256234042278
0.001412068810464856
-0.002946410188641582
0.003371435161269682
-0.0007772599011874226
0.0016295875014961736
0.0011272885828866276
0.0034750571864865204
-0.0020934133485808583
0.001768758681837899
-0.002838898921735887
0.0035789166933465092
-0.0022726824677854647
0.0018064268062978597
0.001121050085919594
0.0035941232762440006
0.0014196105002092087
0.001716778260687223
-0.0026913702861654704
0.0035188664013061544
-0.0030010840848700687
0.0014989957652627
-0.002513992304731136
0.003365069361491057
0.00011782924986887247
0.001142862541133677
0.00010424353671568943
0.0031194751887656785
-0.002824229272946748
0.0005794319229918403
-0.0023093149150249207
-0.00013819396165649938
-0.0032336093858437503
0.0028894379380070678
-0.002024519441960781
-0.0014999577074316104
-0.000460521115198726
0.002798170880640886
-0.000623398432986915
-0.0037153023093458156
-0.0015113778549367871
0.002540916849831893
-0.0016690970296236788
-0.006599115845690668
0.002779675972961019
-0.009437894249105298
-0.001184755165223303
0.0018129076278102806
-0.0029946722373743804
0.0006070273041581582
-0.0006233233082028101
-0.01136340360674637
0.0008568480881363553
-0.0011294649182842231
-0.00013808998541942622
-0.0035958857660221555
0.0017177362862257893
-0.006649127110763635
0.00029610299339296334
-0.009606081507073325
-0.0014339556778072378
-0.011444184552258634
0.00021913900694522928
-0.003220967134415307
-0.002722476091102434
0.003752958170003442
0.0023495689231464857
0.0007394703567806094
-0.0009182100997640249
0.00023197638129276738
-0.0020657379154161346
-0.002939201720533536
-0.000980691815098987
-0.0003477336780863519
-0.0005215319691647464
-0.002122835240342026
0.004908258371563673
0.0005124196887157869
-0.0009535538173483387
-0.00321697723810638
-3.5304004550433814e-05
0.000492264339000375
0.002499802748669811
-0.0022505779988399688
0.0006692671702950534
-0.0018410173885371208
-0.0009442087526980779
0.0008813753716193948
-0.0007955836017693455
0.0025054323589687156
0.004828052244265503
-0.0012179570469887419
0.0007758111242745729
-0.0012371765487097753
0.0032557498822744467
-0.00037535787103623976
0.0026245021954774458
-0.0024373270408861226
0.0019169303485919165
-0.0008078367013556235
0.004512496659526604
0.00029218033396518305
0.0063170096191779036
0.0007304267636468152
0.00932746407637777
-0.00015235958401255717
0.011290520043936995
-0.0030849283744920682
0.002745405376746417
5.471167042948901e-05
0.004203624010557264
0.0003041622513644683
0.011427059307716106
-0.00038667640750617005
0.004049542528694477
-0.009296630151307118
0.002823764037242237
-0.0005618098228147378
0.007006034411162483
-0.0029531990762930414
0.00972848182422225
-0.0005799250584793732
0.0029215636196807176
-0.0028728476713390976
0.0034852242173999716
-0.0023184728838329285
0.0029268006569054586
-0.0027968767235763544
0.002980072884679638
-0.0023652518770783996
0.002360948519569041
0.010038896102755004
0.0018705667653926318
-0.003088962076413781
0.0030376394407684412
-0.002675075297678877
0.003145323726733128
0.0003355257598506943
0.0013408661677416739
0.003301015251602695
0.00320870391263369
0.0006591333003337374
0.0009499476105137116
-0.004187584066896197
0.0007733237270571352
-0.0025753478832846294
0.0032091727989967023
-0.001955439075080159
0.0008003051720201085
0.0023467914131696382
0.003227062918087931
0.001279047642162002
0.0008831470417102448
-0.00244012349843267
0.0033349181274181816
-0.0025919549181307746
0.00096574761124698
-0.0022795756800615304
0.003440309380490721
-0.002601651530725409
0.0010007433865624835
-0.00021829150760785935
0.0034630909186228877
-0.0023639940534090713
0.0009478588255812366
-0.0021062309435385023
0.0033922165045790855
-0.002947592852335996
0.0007881616453398861
-0.0018720832383514838
0.0032470636404918667
-0.0006391050213288372
0.0005118436516354777
-0.0005139810912734743
0.0030032796472482443
-0.0038621302592687706
3.275649478944132e-05
-0.001560232437010911
-0.0006053875252266269
-0.001954642689175254
0.002775308985992469
-0.00120264321875797
-0.0018829089258128161
-0.002702067886011899
0.0026875777768666726
-0.0025811669913955227
-0.004011049104547934
0.00037717227156920836
0.002428978563392676
-3.393764896858914e-05
-0.006834414011987886
0.0015151040857130735
-0.009648531775622466
0.0025578636017011525
0.0017038106261347335
0.0027491909385051173
0.0004942161448219236
0.004163977126605596
-0.011570787947872682
-0.0030647165092800425
-0.0012494304790060173
-0.004097755324289559
-0.0037365609570417296
0.00039778656704303364
-0.006811922577845297
0.002894212193383247
-0.009791467030072552
-0.0026328398858824296
-0.011644364823853478
-0.0031588468513391536
0.004272030798785043
0.0019304228830395067
0.0003349507847896133
-0.0005956286591173829
0.0009303946761267928
0.0008415835196052152
-0.0028846230142838413
-0.002535116456917551
0.004217616037162249
0.0021164767952987396
0.0015456870741126032
-0.00033215031974087394
0.00032699087355720204
-0.0018678262968186133
0.0013558734533090768
-0.00014710233818093977
-0.00038160691526244075
0.0004576024638900506
0.0021793921012785086
0.0016941299780473588
0.0006439065862505315
-0.0007408295681555749
-0.0028753159603591913
0.0008710225204131379
0.0007462338564299887
0.0022463674341567847
-0.0005186971510589785
0.0014808691144928593
-0.0013931920097686899
1.7482283648003675e-05
0.002170485048266016
0.00020990926548495519
0.004461552829828063
0.00261132856484803
0.0027494900898304042
0.001014358323588745
-0.0007317261540885587
0.0035348828907743363
0.0030272236990304823
0.002356902886011735
-0.002047999535440743
0.002599902036812931
-0.0007108487050292852
0.003426212521096611
0.0005929159358800458
0.006640353535437802
0.0026974436145574213
0.009685802311775188
-0.000535591532859413
0.011668078763033376
-0.0027295740207813326
0.002474247309228436
0.0003860461031912739
0.004740180283986067
0.002999051272097655
0.011798591887585592
-1.7234057429275234e-05
0.004061261415206967
-0.00218990115828402
0.002550548174684724
-0.0001116999734572863
0.007422619538174151
-0.0025889629482647525
0.010096566897070327
-0.0006578934871855559
0.002650369857283714
-0.002506914475984204
0.00445849740251718
-0.002047404607689683
0.0045760023639276
-0.0024367752507741354
0.0027119334821930287
-0.002018394261695345
0.0044090253164081345
0.002344034163222382
0.004012117266414806
-0.0026884047716577444
0.002776849418160001
-0.0023175475900341145
0.003294456759919775
0.004456618261369442
0.0029652725352091935
0.0006384112865770834
0.0024802330128696547
-0.0028951386561669175
0.0017338253072057797
-0.0022336121251461077
0.0029708791976268125
0.0011497425423324012
0.0011677264968543014
0.0005198382608246944
0.002997623549981061
0.0011060582574646545
0.0007453928509168626
-0.0021136240070603976
0.0031119802395100657
-0.0021653904676041764
0.0004500734714442632
-0.001979577075993957
0.0032239587235045305
-0.002668489728873136
0.00023706715474527393
-0.00042521549188039975
0.0032531045135703062
-0.001931361384224887
4.8856430387719165e-05
-0.0018424670122362018
0.003188703905900385
-0.002546374815511185
-0.00016065011319072998
-0.0016616321034125636
0.0030505627151166835
-0.0008058352832152522
-0.0004152574244378947
-0.000719882311933126
0.0028131695664740126
-0.0042828123436822515
-0.0008253987820718333
-0.0014260842021887052
-0.0013733918893844277
-0.0007853029050635103
0.002587944047544889
-0.0011598697798217482
-0.002536495541619588
-0.0023016847288973253
0.0025020470470328644
-0.0010479249509780905
-0.004522694628690118
-0.00015411442197172152
0.0022419453404376876
-8.146849252192349e-05
-0.007227962970434527
0.0012869088201283344
-0.009997444803148244
0.0009256968293239348
0.00151061072487132
0.004259454697097244
0.00028839797063105
0.0016432317711599885
-0.011927693680898278
-0.004827418583961147
-0.0014835925095483826
-0.0016619389413088327
-0.004009816341016512
0.0004686614293197551
-0.00713151821706741
0.002551715811589896
-0.010143820050265031
-0.0022133741185005333