# vtk DataFile Version 1.0
GRUMMP topologically 2D mesh
ASCII

DATASET UNSTRUCTURED_GRID
POINTS 4142 float
  0.9902132100051211  -0.0013897599745845   0.0000000000000000
  0.9878682672001325  -0.0017209544766007   0.0000000000000000
  0.9922830260938109  -0.0010965337451688   0.0000000000000000
  0.9852627687065505  -0.0020876945602550   0.0000000000000000
  0.9824126515147726  -0.0024873693035198   0.0000000000000000
  0.9941016532545700  -0.0008382294190312   0.0000000000000000
  0.9793229395886266  -0.0029189889321549   0.0000000000000000
  0.9759912936709813  -0.0033826574903297   0.0000000000000000
  0.9957253756688895  -0.0006072067599891   0.0000000000000000
  0.9724158418644283  -0.0038783672872607   0.0000000000000000
  0.9972114818934485  -0.0003956828894990   0.0000000000000000
  0.9685983419668763  -0.0044053177853816   0.0000000000000000
  0.9986172604849257  -0.0001958749290171   0.0000000000000000
  0.9645418982154840  -0.0049624143705746   0.0000000000000000
  0.9602493276520160  -0.0055486932126648   0.0000000000000000
  1.0000000000000000   0.0000000000000000   0.0000000000000000
  0.9557225436143375  -0.0061636003738353   0.0000000000000000
  0.9986172604763917   0.0001958749302285   0.0000000000000000
  0.0136778115501445  -0.0198442283865115   0.0000000000000000
  0.9509632892996972  -0.0068066585239019   0.0000000000000000
  0.0111799405480040  -0.0180409152078963   0.0000000000000000
  0.9972114818757430   0.0003956828920181   0.0000000000000000
  0.0164236219435115  -0.0216216850259729   0.0000000000000000
  0.9459737546847580  -0.0074771440326796   0.0000000000000000
  0.0194159763686392  -0.0233724637256901   0.0000000000000000
  0.0089312659290954  -0.0162123970812813   0.0000000000000000
  0.9957253756403164   0.0006072067640564   0.0000000000000000
  0.9353156997544615  -0.0088958032333210   0.0000000000000000
  0.0226532123065557  -0.0250954152174871   0.0000000000000000
  0.0261336316774566  -0.0267893559859237   0.0000000000000000
  0.0068429846519911  -0.0142695304151425   0.0000000000000000
  0.9237713702124288  -0.0104115615140689   0.0000000000000000
  0.0298554003449755  -0.0284531869488138   0.0000000000000000
  0.9941016532123735   0.0008382294250309   0.0000000000000000
  0.0050308200222286  -0.0123013782195995   0.0000000000000000
  0.0012596550434314  -0.0062543845982477   0.0000000000000000
  0.9113626015789812  -0.0120184565864932   0.0000000000000000
  0.0338165365583016  -0.0300859006297539   0.0000000000000000
  0.0005600587198625  -0.0041872521188657   0.0000000000000000
  0.0034956879705714  -0.0103096477045821   0.0000000000000000
  0.0380150486067802  -0.0316864834866382   0.0000000000000000
  0.0001400674572995  -0.0020989425108620   0.0000000000000000
  0.0424489169588349  -0.0332538061244847   0.0000000000000000
  0.8981160449036193  -0.0137076729882106   0.0000000000000000
  0.9922830260341767   0.0010965337536290   0.0000000000000000
  0.0022384105171692  -0.0082946477552229   0.0000000000000000
  0.0000000000000000  -0.0000000005380880   0.0000000000000000
  0.0471161050109934  -0.0347866680569130   0.0000000000000000
  0.8692172420003259  -0.0173025512123363   0.0000000000000000
  0.8840586048664243  -0.0154712341935952   0.0000000000000000
  0.8536242589802903  -0.0191927756559575   0.0000000000000000
  0.0520144653095357  -0.0362838744017245   0.0000000000000000
  0.9902132099234322   0.0013897599861408   0.0000000000000000
  0.0001400673054027   0.0020989413744649   0.0000000000000000
  0.0005600583994229   0.0041872509286527   0.0000000000000000
  0.0089312642537700   0.0162123956290166   0.0000000000000000
  0.0068429832427153   0.0142695290019493   0.0000000000000000
  0.0022384098100130   0.0082946464730838   0.0000000000000000
  0.0034956870455263   0.0103096463775504   0.0000000000000000
  0.0050308188630767   0.0123013768482443   0.0000000000000000
  0.0111799386902237   0.0180409137864515   0.0000000000000000
  0.8373107726191357  -0.0211334926288444   0.0000000000000000
  0.0624935355792051  -0.0391666954139108   0.0000000000000000
  0.9878682670932252   0.0017209544916756   0.0000000000000000
  0.0136778095139640   0.0198442269960848   0.0000000000000000
  0.8203090273240524  -0.0231167391866414   0.0000000000000000
  0.0738633143603066  -0.0418930499584099   0.0000000000000000
  0.8026551811301268  -0.0251343400368426   0.0000000000000000
  0.9852627685719384   0.0020876945791685   0.0000000000000000
  0.0861021386417074  -0.0444536409739349   0.0000000000000000
  0.7843840873894279  -0.0271778197795966   0.0000000000000000
  0.9824126513500548   0.0024873693265746   0.0000000000000000
  0.0991843265815398  -0.0468392532814141   0.0000000000000000
  0.0164236197329729   0.0216216836667636   0.0000000000000000
  0.7461418339277840  -0.0313078737465108   0.0000000000000000
  0.9793229393907722   0.0029189889597428   0.0000000000000000
  0.1130825286139299  -0.0490420520078216   0.0000000000000000
  0.7058944105034720  -0.0354399888107516   0.0000000000000000
  0.1277704618123611  -0.0510562827506626   0.0000000000000000
  0.1762568929815641  -0.0559042078350805   0.0000000000000000
  0.0194159739879911   0.0233724623981675   0.0000000000000000
  0.6639684116827792  -0.0395008026994765   0.0000000000000000
  0.1937838883744062  -0.0571083155282771   0.0000000000000000
  0.9759912934368556   0.0033826575228533   0.0000000000000000
  0.2119350336566717  -0.0581032139582273   0.0000000000000000
  0.1432165586985055  -0.0528747491799113   0.0000000000000000
  0.1593891568184451  -0.0544918670991958   0.0000000000000000
  0.0226532097601106   0.0250954139222151   0.0000000000000000
  0.6207078411914361  -0.0434191082996254   0.0000000000000000
  0.5764634620046084  -0.0471137377839725   0.0000000000000000
  0.9724158415910057   0.0038783673250912   0.0000000000000000
  0.2306739249637577  -0.0588890260835713   0.0000000000000000
  0.0261336289695199   0.0267893547234291   0.0000000000000000
  0.5315950381341085  -0.0505057454921963   0.0000000000000000
  0.4864703588817339  -0.0535094604401647   0.0000000000000000
  0.4414549182767121  -0.0560390634426787   0.0000000000000000
  0.9685983416513994   0.0044053178288238   0.0000000000000000
  0.2697570606452168  -0.0598365819607799   0.0000000000000000
  0.3969170552729402  -0.0580119076690758   0.0000000000000000
  0.0298553974799863   0.0284531857194991   0.0000000000000000
  0.9645418978552561   0.0049624144199126   0.0000000000000000
  0.3107174127482247  -0.0599745523566999   0.0000000000000000
  0.3532197168655907  -0.0593474025151865   0.0000000000000000
  0.9602493272443249   0.0055486932681955   0.0000000000000000
  0.0338165335406938   0.0300858994339835   0.0000000000000000
  0.0380150454409591   0.0316864823247920   0.0000000000000000
  0.9557225431564565   0.0061636004358678   0.0000000000000000
  0.0424489136491938   0.0332538049970267   0.0000000000000000
  0.0471161015618897   0.0347866669642923   0.0000000000000000
  0.9509632887889385   0.0068066585927330   0.0000000000000000
  0.9459737541185675   0.0074771441085412   0.0000000000000000
  0.0520144617255517   0.0362838733443521   0.0000000000000000
  0.9353156990700551   0.0088958033238094   0.0000000000000000
  0.0624935317401540   0.0391666944281135   0.0000000000000000
  0.0738633102849253   0.0418930490455120   0.0000000000000000
  0.9237713694002159   0.0104115616199952   0.0000000000000000
  0.0861021343485112   0.0444536401350998   0.0000000000000000
  0.9113626006299211   0.0120184567085017   0.0000000000000000
  0.0991843220904188   0.0468392525175462   0.0000000000000000
  0.8981160438094651   0.0137076731266115   0.0000000000000000
  0.1130825239435962   0.0490420513187447   0.0000000000000000
  0.8840586036192291   0.0154712343488011   0.0000000000000000
  0.1277704569818227   0.0510562821360933   0.0000000000000000
  0.8692172405930260   0.0173025513845012   0.0000000000000000
  0.1432165537277111   0.0528747486397878   0.0000000000000000
  0.8536242574066383   0.0191927758449732   0.0000000000000000
  0.1593891517258480   0.0544918666322352   0.0000000000000000
  0.8373107708732270   0.0211334928345504   0.0000000000000000
  0.1762568877862003   0.0559042074398506   0.0000000000000000
  0.8203090254010921   0.0231167394087162   0.0000000000000000
  0.1937838830953411   0.0571083152030304   0.0000000000000000
  0.2119350283118140   0.0581032137003017   0.0000000000000000
  0.8026551790260408   0.0251343402747870   0.0000000000000000
  0.2306739195716207   0.0588890258904683   0.0000000000000000
  0.7843840851007032   0.0271778200327233   0.0000000000000000
  0.2697570552113356   0.0598365818878674   0.0000000000000000
  0.7461418312636445   0.0313078740273454   0.0000000000000000
  0.3107174073396524   0.0599745523895525   0.0000000000000000
  0.3532197115457904   0.0593474026374948   0.0000000000000000
  0.7058944074605978   0.0354399891145804   0.0000000000000000
  0.6639684082655058   0.0395008030201497   0.0000000000000000
  0.3969170500997217   0.0580119078642495   0.0000000000000000
  0.6207078374111498   0.0434191086291270   0.0000000000000000
  0.5764634578798972   0.0471137381129498   0.0000000000000000
  0.5315950336908907   0.0505057458089039   0.0000000000000000
  0.4864703541532008   0.0535094607315534   0.0000000000000000
  0.4414549133024901   0.0560390636939180   0.0000000000000000
  0.9901595609719056  -0.0023783411927147   0.0000000000000000
  0.0326649145266362  -0.0334200843455863   0.0000000000000000
  0.9878329678703356  -0.0027145673674890   0.0000000000000000
  0.0733998606732272  -0.0440344159407381   0.0000000000000000
  0.9922372924577029  -0.0020726951087579   0.0000000000000000
  0.8846838814295012  -0.0208009306521702   0.0000000000000000
  0.9852539181750185  -0.0030832573491977   0.0000000000000000
  0.8205556230767344  -0.0253024477924150   0.0000000000000000
  0.9824277530968584  -0.0034836508822686   0.0000000000000000
 -0.0022154120548041  -0.0049277430541563   0.0000000000000000
[...]
POINT_DATA 4142
SCALARS continuity float
LOOKUP_TABLE default
-0.0006148808537521057
-0.0005298713027370455
-0.0003991498586599813
-0.0005584280931773499
-0.0005293334017137943
-0.0018277904099892755
-0.000509130578016372
-0.0005063758916980879
0.000143789954141364
-0.0005492840073203062
-0.0020938591083983827
-0.0005523159327380938
-0.08744327716137884
-0.0006050474804224172
-0.0006281510146615954
-0.028585357293239355
-0.0006594008353198065
-0.0843174780697179
0.0016586224081792716
-0.0007002070237119557
0.0025784604193731424
-0.0018090199454838557
0.0010751692024586741
-0.0007553711957361986
0.000552681985849801
0.0011764553321477204
0.00039859833184556536
-0.0007262211332551931
-6.954205646699706e-05
-0.0006674984248320934
0.002410074375783338
-0.0007165518195488803
-0.0011791656972210106
-0.0015887153953504187
0.0015650924042926611
-0.001150237331373268
-0.0007042313775572634
-0.001597340833326813
-0.002115986501041097
0.0008254719663674789
-0.0020008215408716676
-0.0032737115563508737
-0.0023561921533685323
-0.0006630756098925081
-0.0001959750883283583
-0.00010744738870925255
-0.004452003740575452
-0.005506555445421385
-0.0006064857129913539
-0.0006022744704563359
-0.0005881599680945138
0.00030173999235788774
-0.00038286972898772856
-0.006279394450170268
0.01155759692702753
0.0004615287618417722
0.001161301329078296
-0.01425984204431853
0.009881880151029039
0.0023300771703618334
0.0019886343417978613
-0.0005468753349041802
-0.006786181110252593
-0.00030040254406333975
0.0012658875906005045
-0.0005639066680642725
-0.0037013046757842457
-0.0002028787145256364
-0.0003162835081711587
-0.004833328917928676
-0.00048353293804588674
-0.00034409224497122456
-0.0057261279640879745
0.0009101123094203537
7.34850348213698e-05
-0.0003344990561836669
-0.006294946984092175
-0.0003606957293023224
-0.006592262249466282
-0.006455507646365439
0.0004316273771748319
-0.0005079728459749409
-0.006523445967335942
-0.00033676299165718296
-0.00834739360316297
-0.0066638954328991406
-0.006604854559878541
-0.0001582359778803079
-0.00042320814192062586
-0.0002010681327403694
-0.00034057320475705587
-0.005058548581469418
-0.0007343695334755876
9.239098531713522e-05
0.0004140650760121327
0.0006324732382303542
-0.0003916092761732966
-0.006663849775090948
0.0005148793819401396
-0.0012489471721190033
-0.000417867883946292
-0.0017146363463257147
-0.00033681307870282826
-0.00048589221874910935
-0.0016982236602335844
-0.0021463906856908316
-0.000500927145558158
-0.0025601085387376974
-0.005756620479058675
-0.0004586067164361588
-0.0006014420136865314
4.2612820227935124e-05
-0.0005814274089983872
-0.007003135458094265
-0.003872582950456288
-0.0005498325073350442
-0.004980419733841473
-0.000542816874192019
-0.005861673499940262
-0.0004714121549215664
-0.006414767420772623
-0.00045351981943943703
-0.0066865131550793286
-0.00041391587700771346
-0.0067264658751451855
-0.0003849538509628912
-0.006631855039835643
-0.00036697694504895395
-0.0064480381902365805
-0.00031260392226461174
-0.00648979928943166
-0.008299620777042365
-0.00010531016684171263
-0.005004499336653281
-0.000128297533057563
-0.006596753455240372
0.00016917536062741154
-0.0016392440640034393
-0.0002542666913050366
-9.4409329638132e-05
-0.00034605880066699207
0.0005978959430253994
-0.0002619430796352189
-5.933049042193528e-05
0.00020561813945881182
0.0005051919815509682
0.0007136509627446369
-0.0007536831059387629
-0.0065607319253196605
-0.0005344893904615779
-0.006104172031161018
-0.0002919586588002064
-0.0009210812743019977
-0.000569855690482196
-0.0006545326049295742
-0.0005388124165101023
-0.002462784940806045
-0.003110089637844357
-0.0032495033805929915
-0.000525667118065628
-0.002818830983564331
-0.0005291837003656249
-0.00044837419575790796
0.00264037621859302
-0.0020690614095575433
-0.0005765110535600334
-0.009517121149304862
-0.01525008800885096
-0.0009315632311690421
-0.0005832688313420707
-0.0006344987506275198
0.00419082369144425
-0.006727232676930544
-0.0006397561570101822
-0.0022698682101702267
-0.0006659899506185015
-0.0007791729969950964
-0.03920906081973512
-0.03922808767213238
-0.020602474169074868
-0.019256860772773114
-0.017224057297360925
-0.019146524255232573
-0.020478550478746062
-0.000701072156162982
0.0011129758074111334
0.0034594083880331214
-0.0026177901836647553
-0.004624976823033666
0.005836248522254572
-0.0007485520171345207
-0.00940132192008405
-0.003529155304199592
-0.005589009989404373
-0.014879136677830288
-0.006678945416007511
-0.005300340262441889
-0.001222121063177166
-0.0007925688909950779
-0.0012927269277982977
-0.005718441634522279
-0.0019872350186642203
-0.0033433166257427448
-0.0008310219566630281
0.0027481497477225884
-0.0008838675066923215
-0.0007733890445612536
-0.0033906882720191643
-0.006111249629290684
-0.003181223567038411
-0.0063877754881439645
-0.0004457955285542838
-0.0021024760517227297
-0.0005886875636064632
-0.0007613930493173181
-0.0023018331884888353
-0.0065293409984345345
-0.0046219637509573065
-0.0028570131140636915
-0.002065674540557643
-0.001464586945632313
-0.0006745803967550994
-0.0009432244008149429
-0.0023928999962922427
-0.0007489782770339821
-0.0006864182680241958
-0.00657229587036324
-0.002954132132787263
-0.0015451970317636788
-0.0006920285690643912
-0.0008797254702622094
-0.0018133236671090994
-0.006567561484600339
-0.008313063385750843
-0.002739624136280119
-0.008851683442524802
-0.006394511669946695
-0.0035784680415853042
-0.000708560308412427
-0.0005717421996594386
-9.705025663841834e-05
-0.0012586384598812735
-0.0006737434489822821
-0.0007804253970886682
-0.0037407296035682196
-0.0001344511132362035
-0.008236050090608632
-0.0033199535736094465
-0.0006533419695133608
-0.0007456521319866713
-0.0006475516319591645
-0.0007732291643693222
-0.0006359680330202452
-0.006032907868140404
-0.004682181120211345
-0.0009763915240182137
-0.0005156251589347555
-0.0030371911851431004
-0.0031737518626036715
-0.0007644108765270328
0.001554288584213143
-0.006092169516829122
-0.003989991795470912
-0.0006934756165108513
-0.002963920518368423
-0.0010166770491871926
-0.00668424344544365
-0.005330506300254841
0.006632552780033641
-0.002395152556255354
1.7353278460716214e-05
-0.007505567418783048
-0.00416648842007556
-0.00593406526132565
-0.0005960276770176646
-0.0007549140539201091
-0.009376459016054172
-0.0007847075586066206
-0.00030384981784741476
-0.009968140829649507
-0.00507255566781758
-0.0017801052686524641
-0.0006143723260876825
-0.002866290692076692
-0.00613480213237928
-0.0010420967779858083
-0.00027135551459876684
-0.0030565177846150885
-0.00032685591404596313
-0.0014575100226586438
-0.006870133361104826
-0.00194032381706991
-0.0005168720301846522
-0.005677935870072196
-0.00035349951427277244
-0.00096736694915824
-0.00745105040867001
-0.0007952556749553998
-0.005505959766324377
-0.002932296682605269
9.35759540660705e-06
-0.0011288973970164265
-0.0003493480196624413
-0.007498586956234109
-0.007763575064024926
-0.005317561145504491
-0.0004229631166199727
-0.0022308293801794024
-0.007845690610998692
-0.004836400694087208
-0.007254027481798915
-0.0011751807545490034
-0.0058715749329256
-0.0008029448610230026
-0.0005769782604852674
-0.005729679639540881
-0.0071998656711846
0.0030600441328520137
-0.0003579179897711837
-0.002307927803489597
-0.00886173524190828
-0.001887592078787669
-0.007736038179590846
0.0023583442170580947
-0.007524505509614303
-0.004265056518433678
-0.006222599156691907
-0.0020949909394576607
-0.0005024825379366488
-0.0008211879937989275
-0.0002925773333067728
-0.0005229631015456574
-0.00036715157290081676
-0.0037093970989925534
-0.00569674158388246
-0.002916817833922421
-0.006465524544094645
-0.005717524712862027
-1.504762596019608e-05
-0.0032425663020625673
0.0002851016636518806
-0.0019741722412980217
0.0004761860698639773
-0.001159641496123186
-0.0004229415306403235
-0.0007774724108447297
-0.007042199572467199
-0.0007263684837945853
0.0003228181767395381
-0.0029827466008033603
-0.0066050121119394485
-0.00726568406903498
-0.00045237524484295004
0.03141956701333385
-0.0020137265291558276
-0.009846168209445772
-0.0005755736273996585
-0.0007355626546535674
-0.0005233453472049257
-0.0015638697747555855
-0.006672969555844437
-0.0007071044605021316
-0.006710846138448791
-0.0005850708211748866
-0.0005416646926952965
-0.000688320269520062
-0.006594732133863098
-0.0010087733638121754
-0.008483285748373988
0.030784034072861458
-0.0005058989418429215
-0.004039188854630188
-0.0006392833140853441
-0.0006393178533644964
-0.004931087208372335
-0.001166442487329039
-0.0006274000001583454
-0.005936230673438325
-0.009587297200429635
-0.0007483286871860128
-0.006300035829845513
-0.0006447733584400716
-0.0005943405709673633
-0.002639929383947536
-0.007011359644223215
0.0028204430214056296
-0.0005875940799962627
-0.0065314120269882635
-0.007580413140832409
-0.0006080290153823104
-0.0005164524979472254
-0.0034679534379529553
-0.007877630139982038
-0.0006189072430275283
-0.0004991177489459497
-0.0004038294472247779
-0.00793421202914257
-0.0016806597333345738
-0.00046005954991211185
-0.002376814086719668
-0.007793507336971314
-0.0006484686885440735
-0.00043190607036481306
-0.0005775069065741391
-0.007546845704253639
-0.0007004483599914549
-0.000414536209660295
-0.007462672901719052
-0.007242100149410397
-0.0003324323632545435
-0.0003624451813853478
-0.007229519225285405
-0.007161930978586454
-0.0006695625094042586
-0.008810144339273965
-0.0011807392543764308
-0.00017218641820623305
-0.0008182436616100914
-0.005637854549931858
-0.0006611500914630887
-0.0001609189574036396
-0.011939849603100688
-0.006972051038578814
-0.007886199857605154
0.00010654311179614175
-0.008243472572706991
-0.0019360197940043184
-0.0005722561298165399
-0.0004908260921301946
-0.009100505264602562
-0.00015640340272844646
-0.0069549841209478646
-0.00041450280264934187
-0.008385356067289946
0.000407417968272024
-0.007890539537777066
-0.00034022088521791705
-0.014926153942749135
-0.00014995355684462315
-0.0009053776775244037
9.941626094560238e-05
-0.007615868719045942
0.000377898487816766
-0.00458057217806623
0.0005589904115501863
-0.014770499226536423
-0.00030753075106168195
-0.0012101473458234618
-0.0004637677310066481
-0.0008671041507852002
-0.0068553539590723595
-0.0009183411867714843
-0.0005618717411736399
-0.002240151907023483
-0.0004692721912066388
8.259612076651671e-05
-0.007498306882403286
-0.0022214318630091596
-0.0038257638496982543
-0.006217704308717765
-2.9883022516190943e-05
-0.0016117921568986544
-0.000442692072503899
-0.008236450806337847
-0.00787643134425354
-0.0063135833728849185
-0.0004672461032859677
-0.0008055776305487062
-0.007998028986736657
-0.0008740550173343463
-0.007448304676745924
-0.009598936065711727
-0.004374897652585524
-0.0023700827258819473
-0.0006228777062087305
-0.0034890516216712123
-0.007399026280747947
-0.005984988001083818
-0.0004357303757868906
-0.003004103892117008
-0.00912226665176141
-0.005561046349583458
-0.007908365517679731
-0.0027276479032417506
-0.007709585070258177
-0.0008783470610389637
-0.004918652110369304
-0.0011605563703791096
-0.0005512971201008451
0.0011635834443156378
-0.0003455695651981378
-0.0030169563078196295
-0.0004322892868301747
-0.003013180616731218
-0.0058749105508011535
-0.008009069160220048
-0.005373229564298814
-0.005048919659055333
-7.220509778798264e-05
-0.0008282661967519862
0.00022520779656148653
-0.0008949040520591776
0.00041443462869870235
-0.00241952796540369
-0.0004777603529455789
-0.004571337036812155
-0.007206046009516182
-0.0015436537553901153
0.0002629857174215512
-0.005217886237823015
-0.0057358494356513495
-0.005190931372821912
-0.000496536793768332
-0.0031535654001985996
-0.0020973048258156836
-0.00219140203338658
-0.0006378279811829771
-0.0008508579564325654
-0.0005614969824944834
5.9118664554243e-05
-0.006017642624060937
-0.003929810355810931
-0.006212612223569965
-0.001113933510042379
-0.0005750891069057051
0.006384770799601102
-0.006209943202518592
-0.0012994642124335568
-0.00853806760772295
-0.0008084494880093662
-0.0005347924265609026
-0.0028279678796243497
-0.000668169916019316
-0.0007825827985624922
-0.004855234647418011
-0.0034161943196187863
-0.000655196141094544
-0.0007686580447841423
-0.009722972357865208
-0.0015206745192943491
-0.006268066519527356
0.006412588757655991
-0.0006263374739157644
-0.0008828834355621663
-0.006996778698215913
-0.0007217230901272132
-0.000621610285964239
-0.007617677383296193
-0.007628383587243951
-0.005432145549055205
-0.0005527075135327575
-0.009975095187750858
-0.00799123167691146
-0.0007342392469677846
-0.0005366333248880052
-0.002069144217029684
-0.008088957926017331
0.0010035946817067922
-0.0004983784976131213
-0.0006951352590141145
-0.007969235811889679
-0.0006989350142711405
-0.0004698042046453452
-0.0012351833343246053
-0.007735734843061977
-0.0007145229025142359
-0.0004532322016091173
-0.0041379794171261764
-0.007440201078004052
-0.001820375719494808
-0.0004017301545996043
-0.0015420729423006937
-0.007364610654280716
-0.0007502993021954117
-0.00907267725140219
-0.0009095643396605118
-0.00020777435603708255
-0.0008196931206855304
-0.005817785271039984
-0.002550763459438777
-0.00020564685487835347
-0.0006401165541744366
-0.007136517696989703
-0.006980764215528082
6.702956723441596e-05
-0.0008075971395211883
-0.0020201869115408443
-0.004933305498757315
-0.0005532425396626868
-0.000987488928764117
-0.00020025723866758113
-0.0005687044366364448
-0.0004600078910339238
-0.010545419884771085
0.0003475239826940428
-0.002210438092789232
-0.00038910022202988723
-0.01041235956808794
-0.00020297933579514201
-0.0006938720903115541
4.256858827863795e-05
-0.010599529632724222
0.0003176942267805747
-0.00823097370672578
0.0004974392544231192
-0.011960022049371966
-0.0010096826032867249
-0.0001279699250017831
-0.008102578280320854
-0.000535945336397229
-0.00249508482161513
-0.00830824635420583
-0.0035256488799720103
-0.0005704803733355756
-0.006541808984063739
-0.008455764496939302
-0.0025483457971637088
-0.00792857495706257
-0.006012369613595474
-0.0051004766617720396
-0.002779774479485588
-0.0007328105897753876
-0.0010061050142977283
-0.007880031410993606
-0.0014390810000179716
-0.0005243928352358638
0.0007878016903675652
-0.009628092103350472
-0.002762660230598945
-0.00837747107888775
-0.0030547821913555506
-0.008184414073119924
-0.007452776336252838
-0.005591789186823752
-0.005368214286341656
-0.0006708154513916202
-0.0022794617728921027
-0.0004748449797505793
-0.004795441983268413
-0.0005160194458526967
-0.0020696380886137604
-0.006296410998595172
-0.0023522565558173713
-0.006001394175495121
-0.0043479713796966135
-0.00021147350458205477
-0.0033641290423537806
7.508817172887461e-05
-0.0017203795280978486
0.00025608939396318047
-0.000980665768527195
-0.0005590003665996242
-0.0011873747913904676
-0.0075436125640206495
-0.004072291091501583
9.85147955994949e-05
0.00047124694133768085
-0.006332811634554152
0.008786175827850996
-0.0005725634379966969
-0.0016413914944139302
-0.002324169475099562
-0.0009371143964205428
-0.0008155998448739201
-0.002327796719979056
-0.0006359049837018155
-0.0009141247737295842
-0.006605474737412669
-0.003177278992576133
-0.006810958203934115
-0.0009058272875287113
-0.0006457134329181505
-0.002035506618075479
-0.006815846144288926
0.008477756148224838
-0.009039825589200069
-0.001135123145949474
-0.000604550402490289
-0.0008579335380964361
-0.0007404926836026374
-0.001142364806175716
-0.005534515082873678
-0.006980280061487197
-0.0007283351895447444
-0.0025324027922302944
-0.010034784509491466
-0.010183037381913564
-0.00668634228244108
-0.0008775497748480011
-0.0007027899226867932
-0.002730762811192481
-0.007366263000756658
0.000568821330392024
-0.0007021529746966468
-0.0008452276259510904
-0.008018434683705588
-0.0008377405586919557
-0.0006359195215479232
-0.0015790150100746356
-0.008423409842035533
-0.0008497355676753738
-0.0006222463155282485
-0.0038320174372856006
-0.008549231739032093
-0.0013756201433609311
-0.0005853057154300543
-0.002077356075350601
-0.008443283811810174
-0.0008793382346919883
-0.0005584082241491764
-0.0011673244252944572
-0.008216471124800622
-0.0009442951437562651
-0.0005434943426222222
-0.0020526478883577766
-0.007927006460735556
-0.0007747055728390778
-0.0004935319890450476
-0.007685015779369973
-0.007850382772131643
-0.0009197471999780524
-0.009582604510648981
-0.0034246000128127616
-0.0003027759764986358
-0.0010416147438399152
-0.006241604025655476
-0.0008320314921816172
-0.0003030453951700671
-0.00523906434347425
-0.007475453324096969
-0.0017353095429141101
-3.107956407469128e-05
-0.006234929796520051
-0.002247135502507813
-0.0008372680840568918
-0.0007316941622048523
-0.005327351792223955
-0.00030364204857661063
-0.007695392905561937
-0.0005704502937894633
-0.00517540172374483
0.00018254103234716253
-0.008227525464146068
-0.0005080400916715979
-0.005052810199507366
-0.00033215338609529133
-0.0011258790487191817
-9.756364517230839e-05
-0.0008626810109034229
0.0001674474942679496
-0.0010944226603741296
0.00033874997551969796
-0.001018739162509764
-0.006565792970975528
-0.0007019009093835183
-0.007168056519696314
-0.00826586632041637
-0.0010323601907765564
-0.004758995520249159
-0.0012281462206873116
-0.0002932115594522282
-0.006359775578557722
-0.0006657864403852972
-0.002297615453224983
-0.008715848411590545
-0.0030545775010653764
-0.0007453076124704723
-0.006665206243190929
-0.008904203511370841
-0.0019101321855446197
-0.008491390764654926
-0.006054707397894999
-0.0054228357963971375
-0.0024142010758518317
-0.0009176641445620007
-0.001213274635876553
-0.008474610413216963
-0.002943148144469697
-0.0006578160674004125
-0.00021235143628866774
-0.010268785633184686
-0.002178813151087552
-0.008864387715672002
-0.0028045778978798377
-0.008708159608227763
-0.006098346051194808
-0.006035137083514923
-0.0052646457068262365
-0.0008680376281828844
-0.0018002078564220622
-0.0006847409311766557
-0.0046582688848431485
-0.0006486205317637735
-0.0027498163483332364
-0.006869317829958541
-0.0019800522888337724
-0.006535922812999044
-0.0032831300053622393
-0.0004334395451772246
-0.0032299043673098054
-0.00015682862930730424
-0.001263075635551924
1.661553045371815e-05
-0.0011934751662879086
-0.0006935056435581259
-0.0014585969706603344
-0.00801469601080505
-0.003864241171115368
-0.00014640536377668947
-0.0003021361817355498
-0.006948960352208858
0.0010727589436034775
-0.0007015415148116988
-0.0014679999628152789
-0.0026540811511660185
-0.0011479455319473612
-0.0010792894393904613
-0.0016813821821652173
-0.0007655687898642283
-0.001126449217674258
-0.007289996637015365
-0.0025708658276647122
-0.007561027935025103
-0.0011223754805772335
-0.0007709956407375747
-0.00270549777269207
-0.007614267690531116
0.0008987152794147697
-0.009553401637000017
-0.0015173753139083334
-0.0007269684431998732
-0.0010672702381239612
-0.0063836936990263925
-0.0056171543282522805
-0.0008528520602374232
-0.002142753243500063
-0.010132742506544294
-0.010109788976702505
-0.007116274731916154
-0.0010908220664669701
-0.0008341981609496851
-0.0032112907698164106
-0.00774085055567141
-0.0004141817146032166
-0.0008404961666930856
-0.0010135132048267968
-0.0083862522342225
-0.0010366198448980633
-0.0007785011682497468
-0.0020718773465420565
-0.00882725017734972
-0.0010362823173061468
-0.0007679990065637041
-0.003127688664087339
-0.008997990618717113
-0.0013237141795255259
-0.0007343531844015816
-0.00276470848143037
-0.008933579804626125
-0.0010506096735622393
-0.0007105017482458163
-0.001556816507250456
-0.008747351111202827
-0.0011031850976832233
-0.0006981029639733913
-0.0014658778972678806
-0.008497301652750134
-0.000986529966025009
-0.0006515498919814727
-0.008385463619961769
-0.008453102611851
-0.0010611024081624491
-0.010230369503582085
-0.00014836249692137403
-0.0004658782090494926
-0.0011432193463949694
-0.006819594320041085
-0.0012258113927147703
-0.000468411445135036
-0.005459110434356633
-0.007949185239935904
-0.001314454981150122
-0.000197669161396665
-0.006063840908360796
-0.0025785737229214053
-0.0010165664705164266