# vtk DataFile Version 1.0
GRUMMP topologically 2D mesh
ASCII

DATASET UNSTRUCTURED_GRID
POINTS 4142 float
  0.9902132100051211  -0.0013897599745845   0.0000000000000000
  0.9878682672001325  -0.0017209544766007   0.0000000000000000
  0.9922830260938109  -0.0010965337451688   0.0000000000000000
  0.9852627687065505  -0.0020876945602550   0.0000000000000000
  0.9824126515147726  -0.0024873693035198   0.0000000000000000
  0.9941016532545700  -0.0008382294190312   0.0000000000000000
  0.9793229395886266  -0.0029189889321549   0.0000000000000000
  0.9759912936709813  -0.0033826574903297   0.0000000000000000
  0.9957253756688895  -0.0006072067599891   0.0000000000000000
  0.9724158418644283  -0.0038783672872607   0.0000000000000000
  0.9972114818934485  -0.0003956828894990   0.0000000000000000
  0.9685983419668763  -0.0044053177853816   0.0000000000000000
  0.9986172604849257  -0.0001958749290171   0.0000000000000000
  0.9645418982154840  -0.0049624143705746   0.0000000000000000
  0.9602493276520160  -0.0055486932126648   0.0000000000000000
  1.0000000000000000   0.0000000000000000   0.0000000000000000
  0.9557225436143375  -0.0061636003738353   0.0000000000000000
  0.9986172604763917   0.0001958749302285   0.0000000000000000
  0.0136778115501445  -0.0198442283865115   0.0000000000000000
  0.9509632892996972  -0.0068066585239019   0.0000000000000000
  0.0111799405480040  -0.0180409152078963   0.0000000000000000
  0.9972114818757430   0.0003956828920181   0.0000000000000000
  0.0164236219435115  -0.0216216850259729   0.0000000000000000
  0.9459737546847580  -0.0074771440326796   0.0000000000000000
  0.0194159763686392  -0.0233724637256901   0.0000000000000000
  0.0089312659290954  -0.0162123970812813   0.0000000000000000
  0.9957253756403164   0.0006072067640564   0.0000000000000000
  0.9353156997544615  -0.0088958032333210   0.0000000000000000
  0.0226532123065557  -0.0250954152174871   0.0000000000000000
  0.0261336316774566  -0.0267893559859237   0.0000000000000000
  0.0068429846519911  -0.0142695304151425   0.0000000000000000
  0.9237713702124288  -0.0104115615140689   0.0000000000000000
  0.0298554003449755  -0.0284531869488138   0.0000000000000000
  0.9941016532123735   0.0008382294250309   0.0000000000000000
  0.0050308200222286  -0.0123013782195995   0.0000000000000000
  0.0012596550434314  -0.0062543845982477   0.0000000000000000
  0.9113626015789812  -0.0120184565864932   0.0000000000000000
  0.0338165365583016  -0.0300859006297539   0.0000000000000000
  0.0005600587198625  -0.0041872521188657   0.0000000000000000
  0.0034956879705714  -0.0103096477045821   0.0000000000000000
  0.0380150486067802  -0.0316864834866382   0.0000000000000000
  0.0001400674572995  -0.0020989425108620   0.0000000000000000
  0.0424489169588349  -0.0332538061244847   0.0000000000000000
  0.8981160449036193  -0.0137076729882106   0.0000000000000000
  0.9922830260341767   0.0010965337536290   0.0000000000000000
  0.0022384105171692  -0.0082946477552229   0.0000000000000000
  0.0000000000000000  -0.0000000005380880   0.0000000000000000
  0.0471161050109934  -0.0347866680569130   0.0000000000000000
  0.8692172420003259  -0.0173025512123363   0.0000000000000000
  0.8840586048664243  -0.0154712341935952   0.0000000000000000
  0.8536242589802903  -0.0191927756559575   0.0000000000000000
  0.0520144653095357  -0.0362838744017245   0.0000000000000000
  0.9902132099234322   0.0013897599861408   0.0000000000000000
  0.0001400673054027   0.0020989413744649   0.0000000000000000
  0.0005600583994229   0.0041872509286527   0.0000000000000000
  0.0089312642537700   0.0162123956290166   0.0000000000000000
  0.0068429832427153   0.0142695290019493   0.0000000000000000
  0.0022384098100130   0.0082946464730838   0.0000000000000000
  0.0034956870455263   0.0103096463775504   0.0000000000000000
  0.0050308188630767   0.0123013768482443   0.0000000000000000
  0.0111799386902237   0.0180409137864515   0.0000000000000000
  0.8373107726191357  -0.0211334926288444   0.0000000000000000
  0.0624935355792051  -0.0391666954139108   0.0000000000000000
  0.9878682670932252   0.0017209544916756   0.0000000000000000
  0.0136778095139640   0.0198442269960848   0.0000000000000000
  0.8203090273240524  -0.0231167391866414   0.0000000000000000
  0.0738633143603066  -0.0418930499584099   0.0000000000000000
  0.8026551811301268  -0.0251343400368426   0.0000000000000000
  0.9852627685719384   0.0020876945791685   0.0000000000000000
  0.0861021386417074  -0.0444536409739349   0.0000000000000000
  0.7843840873894279  -0.0271778197795966   0.0000000000000000
  0.9824126513500548   0.0024873693265746   0.0000000000000000
  0.0991843265815398  -0.0468392532814141   0.0000000000000000
  0.0164236197329729   0.0216216836667636   0.0000000000000000
  0.7461418339277840  -0.0313078737465108   0.0000000000000000
  0.9793229393907722   0.0029189889597428   0.0000000000000000
  0.1130825286139299  -0.0490420520078216   0.0000000000000000
  0.7058944105034720  -0.0354399888107516   0.0000000000000000
  0.1277704618123611  -0.0510562827506626   0.0000000000000000
  0.1762568929815641  -0.0559042078350805   0.0000000000000000
  0.0194159739879911   0.0233724623981675   0.0000000000000000
  0.6639684116827792  -0.0395008026994765   0.0000000000000000
  0.1937838883744062  -0.0571083155282771   0.0000000000000000
  0.9759912934368556   0.0033826575228533   0.0000000000000000
  0.2119350336566717  -0.0581032139582273   0.0000000000000000
  0.1432165586985055  -0.0528747491799113   0.0000000000000000
  0.1593891568184451  -0.0544918670991958   0.0000000000000000
  0.0226532097601106   0.0250954139222151   0.0000000000000000
  0.6207078411914361  -0.0434191082996254   0.0000000000000000
  0.5764634620046084  -0.0471137377839725   0.0000000000000000
  0.9724158415910057   0.0038783673250912   0.0000000000000000
  0.2306739249637577  -0.0588890260835713   0.0000000000000000
  0.0261336289695199   0.0267893547234291   0.0000000000000000
  0.5315950381341085  -0.0505057454921963   0.0000000000000000
  0.4864703588817339  -0.0535094604401647   0.0000000000000000
  0.4414549182767121  -0.0560390634426787   0.0000000000000000
  0.9685983416513994   0.0044053178288238   0.0000000000000000
  0.2697570606452168  -0.0598365819607799   0.0000000000000000
  0.3969170552729402  -0.0580119076690758   0.0000000000000000
  0.0298553974799863   0.0284531857194991   0.0000000000000000
  0.9645418978552561   0.0049624144199126   0.0000000000000000
  0.3107174127482247  -0.0599745523566999   0.0000000000000000
  0.3532197168655907  -0.0593474025151865   0.0000000000000000
  0.9602493272443249   0.0055486932681955   0.0000000000000000
  0.0338165335406938   0.0300858994339835   0.0000000000000000
  0.0380150454409591   0.0316864823247920   0.0000000000000000
  0.9557225431564565   0.0061636004358678   0.0000000000000000
  0.0424489136491938   0.0332538049970267   0.0000000000000000
  0.0471161015618897   0.0347866669642923   0.0000000000000000
  0.9509632887889385   0.0068066585927330   0.0000000000000000
  0.9459737541185675   0.0074771441085412   0.0000000000000000
  0.0520144617255517   0.0362838733443521   0.0000000000000000
  0.9353156990700551   0.0088958033238094   0.0000000000000000
  0.0624935317401540   0.0391666944281135   0.0000000000000000
  0.0738633102849253   0.0418930490455120   0.0000000000000000
  0.9237713694002159   0.0104115616199952   0.0000000000000000
  0.0861021343485112   0.0444536401350998   0.0000000000000000
  0.9113626006299211   0.0120184567085017   0.0000000000000000
  0.0991843220904188   0.0468392525175462   0.0000000000000000
  0.8981160438094651   0.0137076731266115   0.0000000000000000
  0.1130825239435962   0.0490420513187447   0.0000000000000000
  0.8840586036192291   0.0154712343488011   0.0000000000000000
  0.1277704569818227   0.0510562821360933   0.0000000000000000
  0.8692172405930260   0.0173025513845012   0.0000000000000000
  0.1432165537277111   0.0528747486397878   0.0000000000000000
  0.8536242574066383   0.0191927758449732   0.0000000000000000
  0.1593891517258480   0.0544918666322352   0.0000000000000000
  0.8373107708732270   0.0211334928345504   0.0000000000000000
  0.1762568877862003   0.0559042074398506   0.0000000000000000
  0.8203090254010921   0.0231167394087162   0.0000000000000000
  0.1937838830953411   0.0571083152030304   0.0000000000000000
  0.2119350283118140   0.0581032137003017   0.0000000000000000
  0.8026551790260408   0.0251343402747870   0.0000000000000000
  0.2306739195716207   0.0588890258904683   0.0000000000000000
  0.7843840851007032   0.0271778200327233   0.0000000000000000
  0.2697570552113356   0.0598365818878674   0.0000000000000000
  0.7461418312636445   0.0313078740273454   0.0000000000000000
  0.3107174073396524   0.0599745523895525   0.0000000000000000
  0.3532197115457904   0.0593474026374948   0.0000000000000000
  0.7058944074605978   0.0354399891145804   0.0000000000000000
  0.6639684082655058   0.0395008030201497   0.0000000000000000
  0.3969170500997217   0.0580119078642495   0.0000000000000000
  0.6207078374111498   0.0434191086291270   0.0000000000000000
  0.5764634578798972   0.0471137381129498   0.0000000000000000
  0.5315950336908907   0.0505057458089039   0.0000000000000000
  0.4864703541532008   0.0535094607315534   0.0000000000000000
  0.4414549133024901   0.0560390636939180   0.0000000000000000
  0.9901595609719056  -0.0023783411927147   0.0000000000000000
  0.0326649145266362  -0.0334200843455863   0.0000000000000000
  0.9878329678703356  -0.0027145673674890   0.0000000000000000
  0.0733998606732272  -0.0440344159407381   0.0000000000000000
  0.9922372924577029  -0.0020726951087579   0.0000000000000000
  0.8846838814295012  -0.0208009306521702   0.0000000000000000
  0.9852539181750185  -0.0030832573491977   0.0000000000000000
  0.8205556230767344  -0.0253024477924150   0.0000000000000000
  0.9824277530968584  -0.0034836508822686   0.0000000000000000
 -0.0022154120548041  -0.0049277430541563   0.0000000000000000
[...]
POINT_DATA 4142
SCALARS continuity float
LOOKUP_TABLE default
0.00022133441742648997
0.0002285477691196698
0.00021334577898537345
0.00023568380333797187
0.00024254347547166363
0.00019474209636557549
0.000249770435567004
0.00025747915534601835
0.00019699784537691216
0.00026589637013234605
0.0001307078431250556
0.0002737889330914338
-0.0012318688538976116
0.00028249657308082485
0.00029051153400921507
-5.419045390380325e-07
0.00029872858888320067
0.001215353018761195
0.012154799160419233
0.0003067332350570645
0.012250521401207177
-0.00011723825520004373
0.011951683469292838
0.00031535608336362637
0.011671712177532188
0.012179310513197223
-0.0001835984130715493
0.00032559577908347864
0.01133823012609904
0.010969744820439909
0.011917950893942283
0.00033330382864116503
0.01057970105976538
-0.00018160894053508584
0.011368914851929241
0.007404775990378694
0.00034246930740921606
0.010177985168430239
0.005221219476210396
0.010473663637014902
0.009771189440815186
0.0026956870549879283
0.00936608625007052
0.000350361519095019
-0.00019959297311523602
0.009164548030951347
6.083709980300473e-06
0.00897361724757185
0.00036130124015194506
0.00035461311036030785
0.0003664461999396178
0.008463523455737794
-0.00020739411000436604
-0.00268364086447368
-0.006164184573317721
-0.012199952903857607
-0.011945633525369892
-0.008238731443313316
-0.01060351873018504
-0.011423820675483799
-0.012261906188827344
0.0003722310602650306
0.007809083014546346
-0.00021477996345330153
-0.012159807509074479
0.0003751486000467853
0.007080823299014997
0.0003795307648172041
-0.00022177582057308538
0.00640852239528925
0.00038615374780896246
-0.0002293677995276954
0.005780667537575046
-0.011952427338346252
0.00038872180779022216
-0.00023672334182145113
0.005195643739658091
0.00039558284322204965
0.004652693566642409
0.003258344213127823
-0.011668950283105446
0.0004100190428509275
0.002866741843006958
-0.0002445707746664818
0.0025111558866661573
0.004150296410691593
0.003686543065178268
-0.011333136763840202
0.0004288905572920203
0.0004538438855771513
-0.0002525550787913496
0.0021115789031798623
-0.010962933708082434
0.0004920640534090656
0.0005525174420984017
0.0006453159085953655
-0.0002611914749688799
0.0016645254479132766
0.0007833674262082884
-0.01057159653822683
-0.00026941732443973304
0.0012686618987413263
0.000983395115438094
-0.0002781723832244458
-0.01016893332399393
-0.009761400001969045
-0.00028578287895256963
-0.009355772045900034
-0.008962846375640649
-0.000292791761395111
-0.0003029748458161015
-0.008452298269240568
-0.00031226125514296354
-0.007797342316248542
-0.007068423382861361
-0.0003216232674826281
-0.006395688255049701
-0.00033061081540039657
-0.00576767434908461
-0.00033724029375862186
-0.005182699846282465
-0.0003443601932705413
-0.004639885343782908
-0.0003490803395017624
-0.004137643691878929
-0.0003546913007018253
-0.0036740130621227807
-0.00035817279889051014
-0.0032459087815596946
-0.0003620591877605493
-0.0028543605696985668
-0.002498835799984749
-0.00036756774267681465
-0.002099340493885441
-0.00036883627922972337
-0.0016525450885321196
-0.0003826121460216978
-0.0012572106572515023
-0.0009725135846833001
-0.0003843331246121275
-0.0003977010765120496
-0.000772957347539145
-0.0004168284871677127
-0.0004432541071968738
-0.0004819711315281993
-0.0005424528358601106
-0.0006351605748262064
0.00022309130584698554
0.009903068141404622
0.00023017169627841783
0.007180867978962724
0.00021593351930577267
0.00040748356360873606
0.00023721429581741215
0.0003837412217670107
0.00024392986520333
0.0037071678286434667
0.0001990909458063925
-0.011513696144205958
0.0002510781655031637
-0.00027597445001738594
0.00025872378507882024
-0.00022841882583898406
0.00022602877074987866
0.008027040065866015
0.0002670995742222428
0.007895023292298171
0.00013127393194832117
0.000414474379457952
0.0002749570720168297
0.00038068874161003186
0.0005576543528469783
0.00961280033770335
0.00028365630583209985
-0.011437739790724044
0.0002916584122967512
-0.00030337442880192206
-0.00010833931560822207
0.00011455980806782115
0.00012443464451015367
5.1358583789235356e-05
3.585535928301371e-06
-4.435357481053113e-05
-0.00011602705145093819
0.0002998905373280023
-0.010023459438657976
-0.0005406359912610645
0.0018249695413703536
0.012071150767311162
-0.008952606187838691
0.0003081158711684454
0.008723097121002653
0.012127476697823955
-0.007070499624311149
-0.00012010433881794965
0.00929992315409207
0.011897484258195453
-0.010735997877828737
0.00031621763170654394
0.004276641399746845
0.011639666556306782
-0.011192843732611717
0.012014804133478982
0.00037432888717467503
-0.00021178484696297216
-0.004993808598481743
0.000326815521850046
-0.00022236793060635696
0.011322414598954108
-0.002480230477956299
0.010965771948729495
-0.00023674757989039158
0.011690165549364551
-0.00022197792536529266
0.00033438931739830066
0.005406861496941199
0.01058414896807636
0.008531422326022785
-0.0001860802232156739
0.006841197947840059
0.011085233894765172
0.0003748471873111784
0.0070615934489232715
0.0060675235104484275
0.0003435360845539188
0.0003629630812164203
0.01018843912335902
-0.00017551702839208348
0.0049464336406579955
0.0003696793980978821
0.010139634948720572
0.004815762744648277
0.009785423766127775
0.009018843001208107
0.002535396163090944
0.008976455329662732
0.009381972418858082
-0.00011652629546602719
0.00035141640878610133
-0.00026661077153157037
-0.00020213551558261064
0.00776335742844518
0.008804490018078388
0.00038543249074195934
-5.725408751045359e-05
-0.00021806417023232551
0.008986372255139919
-0.0002564517395763816
0.00036233599941835827
0.0003586755568593659
0.00035565813874051876
0.0003786462191027964
0.0003674800128922242
0.009393476602793927
0.008484664330203976
0.0004030566641421202
-0.000209159702844938
0.0021418138244994867
-0.002774406620928283
0.0003907016257172722
-0.005607646682717702
0.009769651626292175
-0.012039022354379128
0.0037967528726789612
-0.011716535827188807
0.009052020112194853
-0.00812062177189265
0.008535683636523158
-0.010128058304270278
0.004266348215917401
-0.011119460890281907
0.008962691282885984
-0.012141251586626425
0.010136329490201521
0.0003732549006287442
-0.0002413175792853292
0.007826163651599275
0.0003507786035555802
-0.00021642640878846115
0.008214847473329023
-0.012077820585745363
0.006157672861993735
0.0003761820454618005
-0.0022524240001018042
0.007100243417587447
0.010029528673545993
0.0003812276614058572
0.0015584810875659968
-0.00022330323974583514
-0.0002030216350801279
0.00642648480099488
-0.004436379099744676
0.00038641430967919057
0.010484564380559957
-0.0002307655852391674
-0.00035242058956046484
0.005796948133158987
0.0003416379948555852
-0.011899356284202934
-0.010142515368381518
0.0003901390517107947
0.010724047268378353
-0.00023801931797541551
0.009185423362792551
0.00521037399338457
0.010805609518113822
0.00039672671736065804
-0.009642458044153032
0.004665956076757029
0.011086438500996484
0.0032680050248520003
0.00046387817326137056
-0.011637634853695065
0.0003340579967501031
0.00041126502534132785
-0.006208408090307523
0.0028753861518242742
-0.00021390488251302281
-0.00024580759787913597
0.007159755029817529
0.0025162220761949616
0.011172931559530357
0.004162218922228585
-0.007863920209549036
0.0036972350433880576
0.01131077004712974
-0.011317836203975893
-0.00028130133407703445
0.00043026345062217126
0.00032346045789292277
0.00045538644972268645
-0.00891336534158991
-0.00025375823138046766
0.011458094083140063
0.002120753291129473
0.003238121042049106
-0.010959303197271508
-0.00014301741566665816
0.0004938077108242006
-0.010459783404391892
0.0005545409657718864
0.01142373232556751
0.0006476964893630505
0.0004564083179060343
-0.00026236861225496636
0.0003154526009393925
0.0016690281378121995
0.00039672222397882704
0.0007862231586760468
0.011505231491414969
-0.010576278208259272
0.00938227772344279
-0.00027056914503882564
-0.00012673327573986168
0.0012730841129616388
0.007955062559121281
0.0009868963621324442
0.00030744844972801214
-0.0002793139135143872
0.0005300682717230112
-0.01017955496975785
0.0002994750786937183
-0.009775755751265148
-0.0002475335760123683
-0.00028693937897386303
0.00029176933889263953
-0.009371758025274212
0.00039507611636779047
-0.008975638873755624
0.00014623506931578452
-0.0002941763305390171
-0.010632046146295603
-0.00030384115979110977
0.0002833894065885813
-0.008473566274057284
0.0004700034003607285
-0.0003134796616704159
0.00015545578050985036
-0.007814482328271793
0.0003999974963000877
-0.00708789023233263
0.000275926186504538
-0.00032270893929341995
0.004752273270312096
-0.0064136922430857385
0.00022794522599700379
-0.00033167532986715754
0.007281052694548947
-0.005783987073711092
0.00026795891220162337
-0.000338290552371344
0.00113251167288113
-0.00519744208389966
0.0002607767805649706
-0.00034540044737546257
0.0004052449335749618
-0.004653169629769693
0.00021623134954764172
-0.0003501122246122688
0.008027069979991733
-0.004149578543707419
0.00025415599680971186
-0.0003557246266585789
-0.00025299772150483524
-0.0036847181331455046
0.0002480509885063643
-0.0003592006952204734
0.007963538731870118
-0.003255573660123907
0.0002318161741244156
-0.0003630923458386805
0.00663226376217637
-0.0028630079484516626
0.00024203948625862298
-0.00250391425551681
-0.00025597021748263504
-0.0003692596046008838
0.00023582670943620392
-0.0021085279916487824
0.00041128391209117003
-0.0003691059447993268
-0.00014688941065692422
-0.0016570433195976393
0.00773926135253954
-0.00038402565573436717
-5.6213296083469996e-05
-0.0012616324596329276
-0.0002595691580599642
-0.0009760179090422366
4.4722060537603425e-06
-0.0003854793663470469
0.009547382327614286
-0.0003989507381958618
6.569869130678003e-05
-0.0007758163233547565
0.006011952534052589
-0.00041820509049791255
0.00011297099412930966
-0.00044479444581577404
-0.00030820789604373125
-0.00048372507693395634
0.006729686995612563
-0.0005444785704448937
-0.010690822108721902
-0.0006375441587587903
-0.00010310787738010512
0.0003887048031083118
0.0004516575950925232
-0.00023423896239420204
0.00036642084564954925
0.006510417502264371
0.0004200121422184739
0.00039431633336792216
0.0053927857246781515
-0.00024106054694960448
0.0037867212466916097
0.0058798377668034425
0.008953972903889726
-0.011462060619070328
0.008372997395813788
0.0003983920173410348
-0.00022545309109259253
-0.000247725572195808
0.008383442219090344
0.005289936765049628
0.010161715221208945
0.0004055553402124672
-0.00027025112752848685
0.004741067145577636
0.00035730791828929634
0.003327594404119677
0.007588521150865142
-0.011310666084921057
0.009644671105854666
0.0004207484525953539
-0.002059345220186249
0.0029296669159007585
0.010380654603042537
-0.0002550506527022824
0.0013305904308863125
0.0025661658765224107
0.010549362693891002
0.004232344486447415
-0.003960378428226229
0.003762168156180974
0.0003498173610101632
-0.011083579532185929
-0.0004173407458308857
0.0004406754388551286
-0.00022606682360237296
0.0004670520329000071
-0.00916340765383712
-0.00026256062444321475
0.01012970392185821
0.0021639848018301807
0.008542791905437042
-0.010800627801629367
0.010655889893871564
0.0005071092460815121
0.00044287792215324373
0.0005699284214116112
0.0003391953478332079
0.0006657612318355866
-0.008668255461300104
-0.00027079950494745305
0.010685921844356735
0.0017061721878841548
0.0005440287459610596
0.0008077276111128587
-0.0001891698582526039
-0.010477939330842885
-0.0055166766122858035
-0.00027863406423389564
0.010448166039776512
0.0013042040626037987
0.006424372014076212
0.0010127753846003985
0.00033147389128918936
-0.0002871126716623382
-0.00695924220656
-0.010128478627137833
0.010623550475263754
-0.009760889423369478
-0.0002736024268018709
-0.0002944993227980919
-0.0002283058528788868
-0.009383946568970854
-0.007957584950494066
-0.009008751125035552
0.00032365109825012526
-0.000301549584802672
0.0028342021535132217
-0.0003111185606493402
0.00031596675979126147
-0.008520815925622432
-0.009489411459494258
-0.0003206961775784192
0.0003086062663401609
-0.007883773607797394
0.0005355591285385324
-0.007168888692088799
0.00024354138632449245
-0.0003299378264778408
0.00042641860575204626
-0.006497929586633431
0.00030054403638470805
-0.0003389095863801012
0.00868613224944482
-0.005867111686897554
0.00020210907796981782
-0.0003455414399361483
0.00789656367060282
-0.005277187660200098
0.0002935165142535934
-0.00035268112967734805
0.0006521722668671663
-0.004728424265879964
0.00024003212584077592
-0.00035743319855784865
-0.00027643640922807294
-0.004219815991534804
0.00028590373157580504
-0.00036310385001132953
0.00044343662769373603
-0.0037497439801337535
0.00027907002848260866
-0.0003666707734290528
-0.009686037466112761
-0.0033152496656601938
0.00023887795121847004
-0.00037066984614223035
0.0005513176183740253
-0.00291736926943907
0.00027278374149707
-0.0025539235312465086
0.0004301557481927716
-0.0003767673678193946
0.0002669615209453946
-0.002151824991858662
0.004202281750117291
-0.000377034071784588
0.000250658158139357
-0.001694250712969091
0.007314452624333148
-0.0003922783689575635
0.00026124716676981593
-0.0012927961516991477
0.006244209489925829
-0.001001928725145578
0.000255315331719835
-0.0003943144392875362
0.00043599918080889006
-0.0004084558603040051
-7.144640239811215e-05
-0.0007973468553477061
0.007247658627461782
-0.00042864531301712254
4.965438099322456e-06
-0.000456475761260691
-0.00028189089999592937
-0.000497038818100569
8.169711995326079e-05
-0.0005598864084544027
0.007385657060270692
-0.0006556365708375156
0.0001580868700511107
0.0003859387765728404
0.0004162555178034825
0.00702146597874362
-0.0002659172861473121
0.008685085191689338
0.005424954130449865
-0.0018811502859724524
0.0004245446914615676
0.009676929725789254
0.004874400426273798
0.00113271284979183
0.003442462543084512
0.00976470251237935
-0.010657212326581752
-0.003539561796102433
0.00044121847790551454
0.0003784778890822074
0.0030364625670821228
-0.0005127719166705612
-0.00027293198266980443
-0.00025728420458741915
0.00266500082125649
-0.008344374356458285
0.004361133825440098
0.009158051499046587
0.0038846075579302003
0.007887737566750134
-0.010548062443394233
0.009802480673090575
0.00046317603233491457
-0.007851645455643942
0.0004922089523229164
0.00977847633830465
-0.0002800725927503012
0.000669575058579921
0.0022521473238206733
-0.00022139208669933908
-0.010377345167236363
-0.004931682223489001
0.0005357131175753421
0.009480580059469864
0.0006029197476301039
0.005768411930146865
0.0007043236643129325
0.00036047025694798854
-0.0002879747961388629
-0.006205370758685389
0.001782567989762821
0.00967799120474891
0.0008533344171710534
0.0019567711661123677
-0.010156740830348036
-0.0002249926565618192
-0.00029542431390119824
-0.007154591499992597
0.0013690017937344379
0.00035297682081850357
0.0010671409168509546
0.002475573489747744
-0.0003036255357981922
0.00034567133902706313
-0.009896738091042532
-0.0086723262454029
-0.009605407525345406
0.00033875190330199135
-0.00031071763324823116
0.0006592196532685669
-0.009291687741256915
0.00023998603553100872
-0.008967483565457403
0.00047717036242811027
-0.0003175371750162144
0.00033099783726243855
-0.0003268833058573143
-0.00029443726447562184
-0.008526090680227095
0.008027019491623025
-0.0003364254399640116
0.0002350812758958676
-0.007944660169571068
0.007603517731274052
-0.007269783870387127
0.00032437818081571386
-0.00034559096605297584
0.0008356604942209488
-0.006620355258263867
0.000271714815620559
-0.00035454594825378853
-0.0003148430237999742
-0.005999688462582481
0.0003168213462236445
-0.00036117864971385534
0.0005211971348798508
-0.005412585283015033
0.0003097652891210731
-0.000368365009335591
-0.00887247199699874
-0.004862054850101401
0.0002702240943643983
-0.00037319043648171993
0.0006789531168803244
-0.004348854856525438
0.00030297306887946545
-0.00037898868719624606
0.0004818226409191279
-0.0038723929372734287
0.0002965276812412261
-0.0003827251175797768
0.0037109418968987087
-0.003430300080658336
0.00028117704039566915
-0.00038696424687919217
0.007155442115732061
-0.0030243320935767043
0.0002905426197750466
-0.0026529030640070977
0.0011138472395566489
-0.0003933433681056628
0.0002847925349050098
-0.0022401227703509924
0.000488783654053261
-0.00039402969205466315
-8.878768502489468e-05
-0.0017707579450006448
0.006558549031479593
-0.00041016801009362774
5.54911917721327e-06
-0.001357692178103475
-0.0003216288124878803
-0.0010563747219643465
0.00010029710021006935
-0.00041333397679626713
0.006812437820841023
-0.00042897344296863804
0.0001765791062530592
-0.000843011267282183
0.0066860684720470975
-0.00045118011749645796
-0.00016418724079094013
-0.0004816739544670698
-0.0003451088214159532
-0.0005256728024588954
-0.0003554250169830355
-0.0005929218229505729
0.000497222440770733
-0.000694241626543196
0.0003677127801432583
0.007192244264046132
-0.0002889685741954613
0.00880882850325417
0.006151652072915649
-0.00035755960941191337
-0.009783872004571722
0.00043410730858711125
0.00044957577170021243
0.006582531617974061
-0.00029589017966286384
0.00788377457881058
0.005590504965984204
-0.0017069895058249042
0.00046005876497421814
0.008907084289515185
0.005053879750272384
0.0009607147183988789
0.0036223650251374956
0.00897396381422249
-0.009804638223386628
-0.003152046800720345
0.0004796091721288322
0.00042646006806336547
0.0032090305022765427
0.005877293596619633
-0.00030335658071519356
-0.00028821434502334606
0.002828675341632558
-0.007635888658283211
0.004546145098399189
0.008347958323101357
0.004069194789302161
0.007355837746587389
-0.009764512432912298
0.008999352755879311
0.000505366137510202
-0.007132875480448337
0.0005393317050464769
0.008968698276646517
-0.0003105893015384026
0.0008593116790382426
0.0024019883928219064
-0.00026450142124110596
-0.009674854101974205
-0.004404320127527139
0.000589121347757795
0.00866720622369312
0.0006642394880512861
0.005170940506545062
0.0007755083189554798
0.0004088143366047197
-0.0003183744995386919
-0.005542614535946492
0.001915399534983325
0.008865241449419919
0.0009367035812172189
-0.00025468647697135256
-0.009543828495403271
-0.0002433661009161437
-0.0003254599923029506
-0.006444114222565886
0.0014838768240974104
0.0004017161778268005
0.0011651896031648055
0.0021531177447682136
-0.0003333663231942017
0.0003948235617195169
-0.00937750917380579
-0.007981938069188529
-0.00917969231825763
0.00038830894267481773
-0.00034002767431576427
0.000845676288109311
-0.00895604752103634
0.00025716631017635614
-0.008715709678282205
0.0005598984361328378
-0.0003464585690142621
0.00038050606775011505
-0.008364835038045441
0.007506752872408384
-0.0003650590810189258
0.00027878185597418094
-0.00788747881767245
0.0070917135987768705
-0.007304311635872277
0.0003737737534596131
-0.0003742249335294842
0.006301371603263764
-0.0067187329476821565
0.0003034951559427608
-0.00038319375658513443
-0.0003649221779562883
-0.006140195881790451
0.00036516666257546134
-0.0003898945210897338
0.0006417509099268963
-0.005578799636151379
0.00035624561287990805
-0.00039722823603882364
-0.00820046991218183
-0.005042087013474164
0.0003100588083417022
-0.00040225614886978524
0.0008721281188812558
-0.004534326905128012
0.0003467755945985169
-0.0004083519777709424
0.0005661930471685002
-0.004057374604076609
0.00033738255613831384
-0.0004124701538983248
0.0032644011235445428
-0.0036105547143683646
0.00031864030578120626
-0.00041718006508191464
0.006749180977519149
-0.00319720516704677
0.00032946506463549203
-0.0028168611870406065
0.003382669307793192
-0.0004241580903296254
0.0003230737613032921
-0.0023902017643292425
0.0005751014123232208
-0.000425653254795182
-9.931892490358853e-05
-0.0019037878294736164
0.005935713729870136
-0.0004435221839735138
5.640149448039723e-06
-0.0014727149085894083
-0.000373845479173704
-0.0011545415479767458
0.00011086334127394031
-0.0004489063942218055
0.0063531814141679285
-0.0004674347412810446
0.00019976077994641856
-0.0009264865626626654
0.006400778474607102
-0.0004934452188928652
-0.0001874854903306552
-0.0005288672392341774