# vtk DataFile Version 1.0
GRUMMP topologically 2D mesh
ASCII

DATASET UNSTRUCTURED_GRID
POINTS 4142 float
  0.9902132100051211  -0.0013897599745845   0.0000000000000000
  0.9878682672001325  -0.0017209544766007   0.0000000000000000
  0.9922830260938109  -0.0010965337451688   0.0000000000000000
  0.9852627687065505  -0.0020876945602550   0.0000000000000000
  0.9824126515147726  -0.0024873693035198   0.0000000000000000
  0.9941016532545700  -0.0008382294190312   0.0000000000000000
  0.9793229395886266  -0.0029189889321549   0.0000000000000000
  0.9759912936709813  -0.0033826574903297   0.0000000000000000
  0.9957253756688895  -0.0006072067599891   0.0000000000000000
  0.9724158418644283  -0.0038783672872607   0.0000000000000000
  0.9972114818934485  -0.0003956828894990   0.0000000000000000
  0.9685983419668763  -0.0044053177853816   0.0000000000000000
  0.9986172604849257  -0.0001958749290171   0.0000000000000000
  0.9645418982154840  -0.0049624143705746   0.0000000000000000
  0.9602493276520160  -0.0055486932126648   0.0000000000000000
  1.0000000000000000   0.0000000000000000   0.0000000000000000
  0.9557225436143375  -0.0061636003738353   0.0000000000000000
  0.9986172604763917   0.0001958749302285   0.0000000000000000
  0.0136778115501445  -0.0198442283865115   0.0000000000000000
  0.9509632892996972  -0.0068066585239019   0.0000000000000000
  0.0111799405480040  -0.0180409152078963   0.0000000000000000
  0.9972114818757430   0.0003956828920181   0.0000000000000000
  0.0164236219435115  -0.0216216850259729   0.0000000000000000
  0.9459737546847580  -0.0074771440326796   0.0000000000000000
  0.0194159763686392  -0.0233724637256901   0.0000000000000000
  0.0089312659290954  -0.0162123970812813   0.0000000000000000
  0.9957253756403164   0.0006072067640564   0.0000000000000000
  0.9353156997544615  -0.0088958032333210   0.0000000000000000
  0.0226532123065557  -0.0250954152174871   0.0000000000000000
  0.0261336316774566  -0.0267893559859237   0.0000000000000000
  0.0068429846519911  -0.0142695304151425   0.0000000000000000
  0.9237713702124288  -0.0104115615140689   0.0000000000000000
  0.0298554003449755  -0.0284531869488138   0.0000000000000000
  0.9941016532123735   0.0008382294250309   0.0000000000000000
  0.0050308200222286  -0.0123013782195995   0.0000000000000000
  0.0012596550434314  -0.0062543845982477   0.0000000000000000
  0.9113626015789812  -0.0120184565864932   0.0000000000000000
  0.0338165365583016  -0.0300859006297539   0.0000000000000000
  0.0005600587198625  -0.0041872521188657   0.0000000000000000
  0.0034956879705714  -0.0103096477045821   0.0000000000000000
  0.0380150486067802  -0.0316864834866382   0.0000000000000000
  0.0001400674572995  -0.0020989425108620   0.0000000000000000
  0.0424489169588349  -0.0332538061244847   0.0000000000000000
  0.8981160449036193  -0.0137076729882106   0.0000000000000000
  0.9922830260341767   0.0010965337536290   0.0000000000000000
  0.0022384105171692  -0.0082946477552229   0.0000000000000000
  0.0000000000000000  -0.0000000005380880   0.0000000000000000
  0.0471161050109934  -0.0347866680569130   0.0000000000000000
  0.8692172420003259  -0.0173025512123363   0.0000000000000000
  0.8840586048664243  -0.0154712341935952   0.0000000000000000
  0.8536242589802903  -0.0191927756559575   0.0000000000000000
  0.0520144653095357  -0.0362838744017245   0.0000000000000000
  0.9902132099234322   0.0013897599861408   0.0000000000000000
  0.0001400673054027   0.0020989413744649   0.0000000000000000
  0.0005600583994229   0.0041872509286527   0.0000000000000000
  0.0089312642537700   0.0162123956290166   0.0000000000000000
  0.0068429832427153   0.0142695290019493   0.0000000000000000
  0.0022384098100130   0.0082946464730838   0.0000000000000000
  0.0034956870455263   0.0103096463775504   0.0000000000000000
  0.0050308188630767   0.0123013768482443   0.0000000000000000
  0.0111799386902237   0.0180409137864515   0.0000000000000000
  0.8373107726191357  -0.0211334926288444   0.0000000000000000
  0.0624935355792051  -0.0391666954139108   0.0000000000000000
  0.9878682670932252   0.0017209544916756   0.0000000000000000
  0.0136778095139640   0.0198442269960848   0.0000000000000000
  0.8203090273240524  -0.0231167391866414   0.0000000000000000
  0.0738633143603066  -0.0418930499584099   0.0000000000000000
  0.8026551811301268  -0.0251343400368426   0.0000000000000000
  0.9852627685719384   0.0020876945791685   0.0000000000000000
  0.0861021386417074  -0.0444536409739349   0.0000000000000000
  0.7843840873894279  -0.0271778197795966   0.0000000000000000
  0.9824126513500548   0.0024873693265746   0.0000000000000000
  0.0991843265815398  -0.0468392532814141   0.0000000000000000
  0.0164236197329729   0.0216216836667636   0.0000000000000000
  0.7461418339277840  -0.0313078737465108   0.0000000000000000
  0.9793229393907722   0.0029189889597428   0.0000000000000000
  0.1130825286139299  -0.0490420520078216   0.0000000000000000
  0.7058944105034720  -0.0354399888107516   0.0000000000000000
  0.1277704618123611  -0.0510562827506626   0.0000000000000000
  0.1762568929815641  -0.0559042078350805   0.0000000000000000
  0.0194159739879911   0.0233724623981675   0.0000000000000000
  0.6639684116827792  -0.0395008026994765   0.0000000000000000
  0.1937838883744062  -0.0571083155282771   0.0000000000000000
  0.9759912934368556   0.0033826575228533   0.0000000000000000
  0.2119350336566717  -0.0581032139582273   0.0000000000000000
  0.1432165586985055  -0.0528747491799113   0.0000000000000000
  0.1593891568184451  -0.0544918670991958   0.0000000000000000
  0.0226532097601106   0.0250954139222151   0.0000000000000000
  0.6207078411914361  -0.0434191082996254   0.0000000000000000
  0.5764634620046084  -0.0471137377839725   0.0000000000000000
  0.9724158415910057   0.0038783673250912   0.0000000000000000
  0.2306739249637577  -0.0588890260835713   0.0000000000000000
  0.0261336289695199   0.0267893547234291   0.0000000000000000
  0.5315950381341085  -0.0505057454921963   0.0000000000000000
  0.4864703588817339  -0.0535094604401647   0.0000000000000000
  0.4414549182767121  -0.0560390634426787   0.0000000000000000
  0.9685983416513994   0.0044053178288238   0.0000000000000000
  0.2697570606452168  -0.0598365819607799   0.0000000000000000
  0.3969170552729402  -0.0580119076690758   0.0000000000000000
  0.0298553974799863   0.0284531857194991   0.0000000000000000
  0.9645418978552561   0.0049624144199126   0.0000000000000000
  0.3107174127482247  -0.0599745523566999   0.0000000000000000
  0.3532197168655907  -0.0593474025151865   0.0000000000000000
  0.9602493272443249   0.0055486932681955   0.0000000000000000
  0.0338165335406938   0.0300858994339835   0.0000000000000000
  0.0380150454409591   0.0316864823247920   0.0000000000000000
  0.9557225431564565   0.0061636004358678   0.0000000000000000
  0.0424489136491938   0.0332538049970267   0.0000000000000000
  0.0471161015618897   0.0347866669642923   0.0000000000000000
  0.9509632887889385   0.0068066585927330   0.0000000000000000
  0.9459737541185675   0.0074771441085412   0.0000000000000000
  0.0520144617255517   0.0362838733443521   0.0000000000000000
  0.9353156990700551   0.0088958033238094   0.0000000000000000
  0.0624935317401540   0.0391666944281135   0.0000000000000000
  0.0738633102849253   0.0418930490455120   0.0000000000000000
  0.9237713694002159   0.0104115616199952   0.0000000000000000
  0.0861021343485112   0.0444536401350998   0.0000000000000000
  0.9113626006299211   0.0120184567085017   0.0000000000000000
  0.0991843220904188   0.0468392525175462   0.0000000000000000
  0.8981160438094651   0.0137076731266115   0.0000000000000000
  0.1130825239435962   0.0490420513187447   0.0000000000000000
  0.8840586036192291   0.0154712343488011   0.0000000000000000
  0.1277704569818227   0.0510562821360933   0.0000000000000000
  0.8692172405930260   0.0173025513845012   0.0000000000000000
  0.1432165537277111   0.0528747486397878   0.0000000000000000
  0.8536242574066383   0.0191927758449732   0.0000000000000000
  0.1593891517258480   0.0544918666322352   0.0000000000000000
  0.8373107708732270   0.0211334928345504   0.0000000000000000
  0.1762568877862003   0.0559042074398506   0.0000000000000000
  0.8203090254010921   0.0231167394087162   0.0000000000000000
  0.1937838830953411   0.0571083152030304   0.0000000000000000
  0.2119350283118140   0.0581032137003017   0.0000000000000000
  0.8026551790260408   0.0251343402747870   0.0000000000000000
  0.2306739195716207   0.0588890258904683   0.0000000000000000
  0.7843840851007032   0.0271778200327233   0.0000000000000000
  0.2697570552113356   0.0598365818878674   0.0000000000000000
  0.7461418312636445   0.0313078740273454   0.0000000000000000
  0.3107174073396524   0.0599745523895525   0.0000000000000000
  0.3532197115457904   0.0593474026374948   0.0000000000000000
  0.7058944074605978   0.0354399891145804   0.0000000000000000
  0.6639684082655058   0.0395008030201497   0.0000000000000000
  0.3969170500997217   0.0580119078642495   0.0000000000000000
  0.6207078374111498   0.0434191086291270   0.0000000000000000
  0.5764634578798972   0.0471137381129498   0.0000000000000000
  0.5315950336908907   0.0505057458089039   0.0000000000000000
  0.4864703541532008   0.0535094607315534   0.0000000000000000
  0.4414549133024901   0.0560390636939180   0.0000000000000000
  0.9901595609719056  -0.0023783411927147   0.0000000000000000
  0.0326649145266362  -0.0334200843455863   0.0000000000000000
  0.9878329678703356  -0.0027145673674890   0.0000000000000000
  0.0733998606732272  -0.0440344159407381   0.0000000000000000
  0.9922372924577029  -0.0020726951087579   0.0000000000000000
  0.8846838814295012  -0.0208009306521702   0.0000000000000000
  0.9852539181750185  -0.0030832573491977   0.0000000000000000
  0.8205556230767344  -0.0253024477924150   0.0000000000000000
  0.9824277530968584  -0.0034836508822686   0.0000000000000000
 -0.0022154120548041  -0.0049277430541563   0.0000000000000000
[...]
POINT_DATA 4142
SCALARS continuity float
LOOKUP_TABLE default
0.007719697248937519
0.00769220410641755
0.007734114753672923
0.007663424461649635
0.00763421032760474
0.007785988487574846
0.007603521662818747
0.007571778110927154
0.007731002028487017
0.0075383737743947195
0.007841967615141518
0.007505783415573814
0.010734850582972733
0.007470098088544694
0.007435259860404167
0.00936208341605939
0.007397945584749239
0.009476229488171324
0.003686925379362408
0.007356064348991336
0.004064180675692101
0.007811807410791771
0.0033296315821114333
0.007307627497393685
0.0029943648179950894
0.004472165350396007
0.007712864570136506
0.007231751692777267
0.0026811020648377947
0.0023891175533404356
0.004903078448155875
0.007135622133230441
0.0021176060947633818
0.007766137314048135
0.005353998540396353
0.006618215577355253
0.007033631313954359
0.0018658021493349248
0.006919153328987866
0.005805167730611466
0.0016307850723513524
0.007109061273485882
0.0014079759390286627
0.0069191537936453005
0.007722957911741537
0.006236560018913403
0.007201003216525888
0.001194277492237679
0.0066698880630824365
0.00679265579845141
0.0065317679991276426
0.0009650363140332952
0.007713001205632124
0.007166109875722558
0.0067754717290083545
0.004487834528839479
0.004913382124342674
0.00616679375485588
0.005812506346980884
0.005359530121193236
0.004086274195763225
0.0064022267498150395
0.000681104442540454
0.007685771943636821
0.0037099761075602717
0.006248217107429991
0.0003781548620808631
0.006106328004553863
0.007659692282857391
0.00011854719292380097
0.005905330226747033
0.007627973851014738
-0.00010034510022432015
0.0033523758002404025
0.005590206054014226
0.007597289921023997
-0.00028328407835579757
0.005209896402369317
-0.0004300562747091748
-0.0006568072203116558
0.0030157713034797413
0.0048125409243590074
-0.0006609122073061237
0.007565406265518437
-0.0006300462599769704
-0.0005408319741664144
-0.0006158315159028319
0.0027006814762148067
0.004378779918534924
0.0038954584664770264
0.00753307419184338
-0.0005226709179708396
0.002406788182887826
0.003360866762997224
0.002777289725266759
0.0021512009867896685
0.007498758039800447
-0.00023782659968583334
0.0014969645912403253
0.0021333765979542033
0.00746511266394223
0.00024302892626323113
0.000843634989421783
0.00742826512830753
0.0018799145571369669
0.0016436284455333293
0.007393776047369995
0.001419637008519604
0.0012052252206399157
0.0073565936334261065
0.007302560309688549
0.0009748721545364646
0.007231043649123804
0.0006899412561174162
0.00038577584312964475
0.00713541790029302
0.00012529742901255981
0.007035448836751299
-9.432390235529321e-05
0.0069157859815959155
-0.0002779534071316859
0.006800848973007307
-0.00042535859194679825
0.006665993225105121
-0.0005366667538265535
0.006540509890820199
-0.0006120456843876395
0.006391665532551539
-0.0006532776397064906
0.006255280871488464
-0.0006576376507717115
-0.0006270123928977311
0.006097294447325075
-0.0005200845703269028
0.0059018192778234405
-0.00023598834278894728
0.005604231475248876
0.00024390253842839212
0.0008435803370727119
0.005208436861096816
0.004806563692844343
0.0014960722665683733
0.004373398038400087
0.0038928027734946406
0.0033586792643164293
0.0027750395380018943
0.0021494240675092144
0.007718836665726055
0.0026672036350519203
0.007688109332824785
0.0005706236416282717
0.00772499988717893
0.006681429392581687
0.007659754562172335
0.006230870067548097
0.007630589353502133
0.00429244363189522
0.007812339106073759
0.004083836491681317
0.007600038401392548
0.0018480405074318394
0.00756837064642694
0.007667958716047381
0.00763593436646678
0.004331125033603265
0.007535066627105617
0.0009116262903152657
0.008025830931147563
0.006560300200206646
0.007502567881002683
0.006384835843226742
0.007409175836041574
0.002416252096855425
0.007466935692149695
0.0043626912787388394
0.007432190345723098
0.007570692136271997
0.008805242572289209
0.008749488426961648
0.008485134971203153
0.008398280381827227
0.008326420573961914
0.008403239424591986
0.008526237958225583
0.0073949145521429865
0.005009025460800753
0.007791171221713269
0.004272892683407283
0.003840696233705444
0.0051200490399319785
0.0073526678776161996
0.002278691460252016
0.004222910148505619
0.005171048339200249
0.007999598508851125
0.0021625487339090124
0.003472689996156424
0.004833634738778424
0.007305230499874876
0.0015010020232948359
0.003124280962735564
0.004618077268436724
0.0046235074728646205
0.006866529159003355
0.007647099723882374
0.005271340074620236
0.007228928250659464
0.0033594503615027825
0.002797367398331439
0.005385334915515868
0.0024922380991982377
0.007681585640631556
0.005024836149499907
0.007699551535858573
0.007133198152059969
0.0027392384137590094
0.002208579515423268
0.0012295547341856065
0.007794114324027929
0.00433345754989355
0.005415926543651641
0.006514142378496016
0.006324997291941411
0.0034846525431718113
0.007031317814574618
0.006774551107001686
0.0019457787122188605
0.0042775601693489495
0.006496741762305374
0.006652115695041957
0.0057746321860586
0.0020809285384723853
0.0017009604406120738
0.001496108439309953
0.006591444346461716
0.0019079126823991555
0.0014688037618220888
0.005353695717716334
0.0069169035270269475
0.007634264876808408
0.0077149417977764425
0.005256596286930698
0.006083034406648639
0.006619091526473514
0.006639343549431667
0.00770643766043149
0.001244243383471028
0.002553808106694429
0.006667707310961438
0.006900613070239302
0.00679043285782058
0.006741040125856788
0.006529549858980287
0.0017413297520695499
0.0010102201542311743
0.006806081161458152
0.007712110747167152
0.0053374309310381795
0.0066438650026559125
0.006481489085489553
0.006389730365810844
0.001996463013532939
0.00463563944547433
0.000993783686983248
0.005030480896108009
0.005162491059757219
0.005988840249060861
0.0016181043835666706
0.005784862910424704
0.005333088243476041
0.005422615494046086
0.002470798919356445
0.004242078019745164
0.002262697473213516
0.006400078671534008
0.0076686302864886115
0.0007175819451822594
0.00701461149453177
0.007681726471260318
0.0022820210575310944
0.003861569192138723
0.0053089012097925995
0.006246047942771811
0.004309588682256306
0.0004074437929806772
0.00502304171098276
0.006103254746050842
0.0033625994815655487
0.007656099775461805
0.00776604747654192
0.00014124163954150007
0.004255172015348494
0.005903994959458448
0.0025431957735999205
0.007624348954980946
0.0074847221336005725
-8.270776688758212e-05
0.007116210066553753
0.0034943137736710085
0.004167302416363826
0.005587542511046145
0.004837754549917053
0.007593849250645236
0.0026447314273010747
-0.0002695746926402829
0.002838360928768923
0.005207714683722052
0.004239951279383671
-0.00041943153179782973
0.0031448100281321997
-0.0006524554872354366
0.006465190856485063
0.0031450729755973204
0.007211571277857116
0.004810266900840941
0.004257852872603052
-0.0006579481134017419
0.007661156485271128
0.007562039281602056
0.0035159616994834457
-0.0006292559648686384
0.0046160563662461795
-0.0005327318852303904
0.004272698389588227
-0.0006098202175289367
0.003457405030995216
0.002816767498924784
0.0012344611405583875
0.004376467041856597
0.0072877499110822865
0.0038930522112149905
0.004282017644378407
0.007529770515949085
0.003769148971878831
-0.0005212465848273053
0.0033938074061841948
0.002509897914909735
0.007914741885378843
0.0033583501450039047
0.004063592209812407
0.002774697700057333
0.004353619064982827
0.0021485181434233824
0.006585121968402941
0.007495505592573097
0.007335155128282091
-0.0002389051395478952
0.0063524612746777365
0.0014943353323364568
0.00407129194411529
0.0022244847979936903
0.0027997023287330306
0.007461975029213747
0.006962972611426422
0.00024116788899778712
0.001273727704524851
0.0008412196314148383
0.0073776131403042585
0.0074251711235340506
0.006561445066923515
0.001960022039105479
0.007414954185316219
0.0017139672723193754
0.007634098589621914
0.007390753212417786
0.007449836143389984
0.001480589150953852
0.006918515054703905
0.0012553224633792192
0.007107863220780568
0.007353191712272376
0.00393525910907989
0.007300087333807633
0.007485740434677536
0.0010200957714401782
0.0063290217120473774
0.00722824495926118
0.007940052984136591
0.0007265228336054795
0.006198655018543503
0.00041515838301270174
0.007518495229872603
0.007132994675898132
0.0034388541990246113
0.00014810846887393196
0.007676041879444004
0.007033154899228818
0.0008955400653680642
-7.659536760314288e-05
0.007552246223606947
0.006913540955535747
0.005551809998249987
-0.000264169368107061
0.007584374402985285
0.0067986455124194
0.0060560171795539484
-0.0004146531259999391
0.007779751389383097
0.006663785882286241
0.0035261359191023083
-0.00052849941446486
0.007615506955760004
0.0065383222552212765
0.0076062081144267985
-0.0006059756892585289
0.007645268623375187
0.0063894878906208515
0.0021619104887918824
-0.0006488880022983009
0.007716536343108071
0.006253115206246896
0.0005587479557193067
-0.0006546359197387077
0.007674395490749292
-0.0006262062658819186
0.00768555351108707
0.006094223071860222
0.007705437239689152
-0.0005186155853728127
0.005856614347243919
0.005900508364417052
0.008245025136305002
-0.00023705519320458182
0.0018471993812020121
0.005601563795337772
0.008278121650070696
0.0002420818130448036
0.00757245597154784
0.0008411747109991025
0.00836421276620819
0.005206240710464385
0.0029360707383037864
0.004804311882533658
0.008287383325740087
0.0014934461271332692
0.000269613504917325
0.0043710586638847325
0.00838322016153514
0.0038903790608212393
0.007546604388659056
0.003356153890081402
0.0010007605109528972
0.0027724333877809323
0.0037788148323132553
0.002146769428440785
0.008377013941132732
0.006088203095490447
0.006708602166620419
0.007641542143225076
0.006979912151328601
0.00027605163540438224
0.006423263788765554
0.0058886899105770815
0.004315826810840093
0.007609063123058468
0.0003538647093982803
2.7472481463341364e-05
0.00430408701049723
0.0037840703562524503
0.002030252936899904
0.0055725043856990645
0.007741889981504859
0.007578244918558812
0.0023538093844310383
-0.0001801456814069365
0.002914213655917411
0.005192663055265752
0.007616294731497481
-0.00034748062965127855
0.007080889917950682
-0.0006188538093492299
0.0018514471548248363
0.0034730840750054753
0.004249343701046709
0.004795060425324149
0.0033884354194477512
-0.0006336507301506387
0.0031535382342503786
0.007546030690694651
0.0025618065891154086
-0.0006124558107465174
0.0033794810071030674
-0.00047565171434114836
0.00337411537280724
-0.0005653920475497347
0.007175461035572806
0.0031603731564854545
0.00735953754499843
0.004360931155386301
0.007693445771301789
0.0038772792588345787
0.003481969909396745
0.007513432377790671
0.0041718518941024916
-0.0005136077548258562
0.002414257234124993
0.002853229594529216
0.003587072641630918
0.003342380310377535
0.005799792614116855
0.0027586673375104903
0.007251172559849164
0.0021328319294246314
0.00350659342917012
0.007478883808503953
0.0037717924752931043
-0.00023981452366312833
0.006321415123167442
0.001479694464664825
0.007883018699413347
0.0025570304498139193
0.0034407849399022646
0.00744516419901457
0.0040625915182661045
0.0002328985702644072
0.002797030698406033
0.000828909725251239
0.007298013999925467
0.007408132342405337
0.0034658945934202346
0.002275330647303626
0.003931017787088807
0.002008149613239227
0.0007044016284383819
0.0073734972807945436
0.007680964684629042
0.001752310653882548
0.003506147344057787
0.001506406132944325
0.007340680342106143
0.007335640144798818
0.0026053142248840836
0.007282566143773735
0.007377868716381756
0.0012390048738757154
0.0034394816260927457
0.007210909518693447
0.007412525554904941
0.000920284110146739
0.006439586700199127
0.0005782027974193365
0.007620754473021402
0.0071159743063820636
0.006294765708106524
0.0002829091040201472
0.007448459262875068
0.007016460100079681
0.002466254245842292
3.365198641140136e-05
0.007887046023200521
0.006897204563871194
0.0017273087221103098
-0.00017465063792593033
0.00748109325393703
0.006782671698228037
0.006352771952765376
-0.00034262277398457896
0.007694074939499926
0.0066481327081788924
0.007579518333851397
-0.00047131953486178555
0.007514922450386625
0.006522927143247235
0.006819766956521314
-0.0005614552280853757
0.007547219706229799
0.006374243934701213
0.0033865228412087375
-0.0006151992558954428
0.007751107969127351
0.006237999495657796
0.00618668665516413
-0.0006302464758008247
0.0075787719159243145
-0.0006093125769484893
0.0061412843920218806
0.006079252533647135
0.007609376995908313
-0.000510883850556964
0.002669654314275862
0.005885265917721017
0.007690945754767757
-0.00023783607777517975
0.0013564490379876176
0.005586463976023329
0.007640307931959797
0.00023392839910557
0.0004539241014584962
0.0008289739193901278
0.0076735866440436964
0.0051911717772622976
0.005998819324612672
0.004789140560845656
0.008263129137034211
0.0014789127488554468
0.002832613192968835
0.004355598579224823
0.008295961825385938
0.00387464202859584
0.007549252809181094
0.0033402118052061054
0.008256386818673024
0.0027564623313547
0.0018456122195788874
0.0021311506274943807
0.00822335385297472
0.007018548039113862
0.005540553077366207
0.001256334192410738
0.007541294547735721
0.0035135365078800447
2.4884378218767002e-05
0.0025857739312371785
0.005160777408206988
0.003054874409781046
-0.0001757397771469729
0.0018581666593299238
-0.0005268980199414108
0.003157199962533287
0.0035957174057524538
0.00260268154595965
0.0047629772208076454
0.007112257068505767
-0.0005624401228442401
0.007212666581908677
0.0075088759306037684
0.007659351034792401
-0.0005596176339424875
0.002828032937462554
-0.0003335754596133202
0.003485578338313787
-0.0004497865992662604
0.00185763832440594
0.003389057296157074
0.0032448902890523336
0.0043285721402507435
0.0028396516795359734
0.0038446963568403666
0.0033201666441808855
0.007476298550438166
0.006117853972614875
-0.0004806616921929018
0.007777451893225161
0.003163278638802399
0.0027187386508725473
0.0033098485645018006
0.0034397290924031614
0.002726788272349518
0.002165441691351352
0.002102782884606282
0.007233331012029938
0.007441684014731823
0.0027633915161225067
-0.000229035591916545
0.0033850681144438834
0.0014534958153180422
-0.000718540130269699
0.0029238464953277457
0.007530632272583263
0.007408101079029796
0.002820075607026509
0.00022541131316415746
0.007275928258082172
0.0008096877663516465
0.0019100707034100692
0.007371030331604754
0.007312856805984835
0.0026766247216346373
0.0027946186890090083
0.002425294119483001
0.007347208138735893
0.007336575913540895
0.006233200063702568
0.002171296141196952
0.0075530429209152644
0.0019164776980355503
0.006201454555037845
0.007298622272831918
0.007383225737225101
0.007245898116479668
0.007619531698302391
0.001626095826133036
0.0018819040722249736
0.007174814477545156
0.007787009566521253
0.0012814824770055629
0.001998316154053528
0.0009025805053134271
0.007415719803708684
0.007080653543994377
0.006079060405070451
0.0005653055323919669
0.007666992396352557
0.006981752306818526
0.007506298500206478
0.0002756719119574356
0.007450116093534973
0.00686304975877479
0.0066710144606221275
3.0387857510350676e-05
0.007483613919809289
0.006749146030535738
0.0027491798464266957
-0.00017080253828148753
0.007692285267681956
0.006615049171503593
0.005985614535916249
-0.00032913294837852696
0.0075172416208579085
0.006490285042767855
0.006048577848588561
-0.00044573966563462127
0.007550410998582925
0.006341896257936565
0.0019897995703356134
-0.000523108419003623
0.007642924529019285
0.006205889784864025
0.001750859810594928
-0.0005588477901473804
0.007584497712163687
-0.0005562743883893881
0.005652214111810212
0.006047140622014757
0.0076190908222005145
-0.00047772027862664644
0.005906656527459337
0.0058532246834180355
0.00804331700365517
-0.0002268013527187442
0.002230425156744978
0.0055545127031990035
0.008093511413305228
0.00022668607466549227
0.007472255473768824
0.0008100063471512207
0.00804661033024806
0.005159319274765596
0.0012647069747254588
0.004757120600018953
0.007984046822209991
0.001452914141463787
0.0014732265316190025
0.004323291065260392
0.007980421731404877
0.003842136326506531
0.007530651691965616
0.003307773659089011
0.007182222193583512
0.0027247129141660617
0.005708478286602983
0.0021012493175270115
0.007187591486371852
0.0012626836597511334
0.007512726829287814
0.0025114127638351563
0.0006782156928238169
0.007454550308161085
0.0033231755832170656
0.00691854126246775
0.005484053101400535
0.0007647197103479611
0.007479330682175538
0.0028408143354619053
0.000392953717022376
0.0018852682990277896
0.005104576466089846
0.002554914820057428
0.00014937060811675987
0.001244705478103398
-0.00032564896846609524
0.0025992870708633556
0.0032486934229030992
0.001925606773898214
0.004706881859325275
0.007011309383284366
-0.000397740454558848
0.00028389616203340894
0.007445190603337405
0.007629151648247533
-0.0004285898989767281
0.0022733038512942377
-5.1311937177523185e-05
0.0028269901069825245
-0.00020903467314436745
0.0012965207884043978
0.0031614464096256694
0.0026465975174062434
0.004272687815512847
0.0022650693905318527
0.003789422906921883
0.0026957782002975284
0.007411698629849665
0.005852807398948219
-0.0003879391145060712
0.007716670135188515
0.003059609656407484
0.0020674086865017406
0.0032561099552911306
0.002791676098290688
0.0026762108981946368
0.0016115518723160973
0.0020582081788780753
0.0071304219596308675
0.0073766077211683805
0.0021406929148631
-0.0001807952583158144
0.002746394576263378
0.0014194442275089546
0.0002613434264906159
0.00294094166302108
0.007690754210930271
0.007343214660408448
0.002220003288662101
0.00023529030605825259
0.007173001456686888
0.0007929084693089957
0.0013017018207779594
0.007305984792965862
0.007209579296906952
0.002804828790156354
0.002251530258596027
0.002649913685772702
0.007243597732794931
0.007271888762279458
0.0059631595469901415
0.0024762186160276587
0.00768637127332949
0.0022843076772177456
0.006060761340421281
0.0072342219256981005
0.007280490784174593
0.0020358620569134425
0.0013515698562215409
0.00711166379139662
0.007719716569672591
0.0017331213215704072
0.0018136156317543927
0.0013621309793563528
0.007313894657951745
0.007018299111521152
0.0004994905045021282
0.00100635732843068
0.007632612608099609
0.006920376764322092
0.007413313632741479
0.0006836613437613747
0.007351348521085555
0.006802537037339682
0.006460487194946127
0.00039812162015833737
0.007389634161806847
0.0066895595849848655
0.0022076750282738903
0.00015416421258982073
0.007622265765060744
0.006556182078445798
0.005725538701495168
-4.688137899563169e-05
0.00742987490676345
0.006432148472985185
0.00590911444346656
-0.00020490772631489082
0.007469818590655207
0.006284226969953732
0.001392127913729075
-0.00032173299621033436
0.007577976960408116
0.006148661400555015
0.0017522628664014802
-0.00039398487083153194
0.007510439901814603
-0.00042504832272606763
0.0005574800768285809
0.005990004876863139
0.007546918565807616
-0.00038470775337368687
0.005768549921229611
0.005796418894682713
0.008002770100847427
-0.00017818134962120543
0.0017098081608455152
0.005498023997620656
0.008039677102223896
0.00023701013257246492
0.007371724218845362
0.0007936466617200067
0.008001560936066271
0.0051031838713407425
0.0007213419044897672
0.004701163366288655
0.007918380726511513
0.001419237979357518
0.0016616776378110781
0.004267519845265197
0.007920898227450467
0.0037870080578700466
0.00741903450869159
0.0032542342800630326
0.007080743052029784
0.0026743957382451993
0.005572428168275364
0.002057016501727703
0.007086285669638417
0.0008222356044414559
0.007429684363058502
0.0019174226833444552
0.0011875923632801797
0.007341696549416496
0.0026993250145010083
0.006768341434425999
0.005393755105880196
-3.1364666162638066e-05
0.007389750656747774
0.0022671460227358933
0.0009071962513672307
0.0012756643692759784
0.005015500469498662
0.001965156614088127
0.0006457474100306969
0.0007144306488784383
4.7987304537344323e-05
0.0020223359081122092
0.0026490528519263613
0.001332195339548768
0.004619193831463602
0.006860524272867106