# vtk DataFile Version 1.0
GRUMMP topologically 2D mesh
ASCII

DATASET UNSTRUCTURED_GRID
POINTS 4142 float
  0.9902132100051211  -0.0013897599745845   0.0000000000000000
  0.9878682672001325  -0.0017209544766007   0.0000000000000000
  0.9922830260938109  -0.0010965337451688   0.0000000000000000
  0.9852627687065505  -0.0020876945602550   0.0000000000000000
  0.9824126515147726  -0.0024873693035198   0.0000000000000000
  0.9941016532545700  -0.0008382294190312   0.0000000000000000
  0.9793229395886266  -0.0029189889321549   0.0000000000000000
  0.9759912936709813  -0.0033826574903297   0.0000000000000000
  0.9957253756688895  -0.0006072067599891   0.0000000000000000
  0.9724158418644283  -0.0038783672872607   0.0000000000000000
  0.9972114818934485  -0.0003956828894990   0.0000000000000000
  0.9685983419668763  -0.0044053177853816   0.0000000000000000
  0.9986172604849257  -0.0001958749290171   0.0000000000000000
  0.9645418982154840  -0.0049624143705746   0.0000000000000000
  0.9602493276520160  -0.0055486932126648   0.0000000000000000
  1.0000000000000000   0.0000000000000000   0.0000000000000000
  0.9557225436143375  -0.0061636003738353   0.0000000000000000
  0.9986172604763917   0.0001958749302285   0.0000000000000000
  0.0136778115501445  -0.0198442283865115   0.0000000000000000
  0.9509632892996972  -0.0068066585239019   0.0000000000000000
  0.0111799405480040  -0.0180409152078963   0.0000000000000000
  0.9972114818757430   0.0003956828920181   0.0000000000000000
  0.0164236219435115  -0.0216216850259729   0.0000000000000000
  0.9459737546847580  -0.0074771440326796   0.0000000000000000
  0.0194159763686392  -0.0233724637256901   0.0000000000000000
  0.0089312659290954  -0.0162123970812813   0.0000000000000000
  0.9957253756403164   0.0006072067640564   0.0000000000000000
  0.9353156997544615  -0.0088958032333210   0.0000000000000000
  0.0226532123065557  -0.0250954152174871   0.0000000000000000
  0.0261336316774566  -0.0267893559859237   0.0000000000000000
  0.0068429846519911  -0.0142695304151425   0.0000000000000000
  0.9237713702124288  -0.0104115615140689   0.0000000000000000
  0.0298554003449755  -0.0284531869488138   0.0000000000000000
  0.9941016532123735   0.0008382294250309   0.0000000000000000
  0.0050308200222286  -0.0123013782195995   0.0000000000000000
  0.0012596550434314  -0.0062543845982477   0.0000000000000000
  0.9113626015789812  -0.0120184565864932   0.0000000000000000
  0.0338165365583016  -0.0300859006297539   0.0000000000000000
  0.0005600587198625  -0.0041872521188657   0.0000000000000000
  0.0034956879705714  -0.0103096477045821   0.0000000000000000
  0.0380150486067802  -0.0316864834866382   0.0000000000000000
  0.0001400674572995  -0.0020989425108620   0.0000000000000000
  0.0424489169588349  -0.0332538061244847   0.0000000000000000
  0.8981160449036193  -0.0137076729882106   0.0000000000000000
  0.9922830260341767   0.0010965337536290   0.0000000000000000
  0.0022384105171692  -0.0082946477552229   0.0000000000000000
  0.0000000000000000  -0.0000000005380880   0.0000000000000000
  0.0471161050109934  -0.0347866680569130   0.0000000000000000
  0.8692172420003259  -0.0173025512123363   0.0000000000000000
  0.8840586048664243  -0.0154712341935952   0.0000000000000000
  0.8536242589802903  -0.0191927756559575   0.0000000000000000
  0.0520144653095357  -0.0362838744017245   0.0000000000000000
  0.9902132099234322   0.0013897599861408   0.0000000000000000
  0.0001400673054027   0.0020989413744649   0.0000000000000000
  0.0005600583994229   0.0041872509286527   0.0000000000000000
  0.0089312642537700   0.0162123956290166   0.0000000000000000
  0.0068429832427153   0.0142695290019493   0.0000000000000000
  0.0022384098100130   0.0082946464730838   0.0000000000000000
  0.0034956870455263   0.0103096463775504   0.0000000000000000
  0.0050308188630767   0.0123013768482443   0.0000000000000000
  0.0111799386902237   0.0180409137864515   0.0000000000000000
  0.8373107726191357  -0.0211334926288444   0.0000000000000000
  0.0624935355792051  -0.0391666954139108   0.0000000000000000
  0.9878682670932252   0.0017209544916756   0.0000000000000000
  0.0136778095139640   0.0198442269960848   0.0000000000000000
  0.8203090273240524  -0.0231167391866414   0.0000000000000000
  0.0738633143603066  -0.0418930499584099   0.0000000000000000
  0.8026551811301268  -0.0251343400368426   0.0000000000000000
  0.9852627685719384   0.0020876945791685   0.0000000000000000
  0.0861021386417074  -0.0444536409739349   0.0000000000000000
  0.7843840873894279  -0.0271778197795966   0.0000000000000000
  0.9824126513500548   0.0024873693265746   0.0000000000000000
  0.0991843265815398  -0.0468392532814141   0.0000000000000000
  0.0164236197329729   0.0216216836667636   0.0000000000000000
  0.7461418339277840  -0.0313078737465108   0.0000000000000000
  0.9793229393907722   0.0029189889597428   0.0000000000000000
  0.1130825286139299  -0.0490420520078216   0.0000000000000000
  0.7058944105034720  -0.0354399888107516   0.0000000000000000
  0.1277704618123611  -0.0510562827506626   0.0000000000000000
  0.1762568929815641  -0.0559042078350805   0.0000000000000000
  0.0194159739879911   0.0233724623981675   0.0000000000000000
  0.6639684116827792  -0.0395008026994765   0.0000000000000000
  0.1937838883744062  -0.0571083155282771   0.0000000000000000
  0.9759912934368556   0.0033826575228533   0.0000000000000000
  0.2119350336566717  -0.0581032139582273   0.0000000000000000
  0.1432165586985055  -0.0528747491799113   0.0000000000000000
  0.1593891568184451  -0.0544918670991958   0.0000000000000000
  0.0226532097601106   0.0250954139222151   0.0000000000000000
  0.6207078411914361  -0.0434191082996254   0.0000000000000000
  0.5764634620046084  -0.0471137377839725   0.0000000000000000
  0.9724158415910057   0.0038783673250912   0.0000000000000000
  0.2306739249637577  -0.0588890260835713   0.0000000000000000
  0.0261336289695199   0.0267893547234291   0.0000000000000000
  0.5315950381341085  -0.0505057454921963   0.0000000000000000
  0.4864703588817339  -0.0535094604401647   0.0000000000000000
  0.4414549182767121  -0.0560390634426787   0.0000000000000000
  0.9685983416513994   0.0044053178288238   0.0000000000000000
  0.2697570606452168  -0.0598365819607799   0.0000000000000000
  0.3969170552729402  -0.0580119076690758   0.0000000000000000
  0.0298553974799863   0.0284531857194991   0.0000000000000000
  0.9645418978552561   0.0049624144199126   0.0000000000000000
  0.3107174127482247  -0.0599745523566999   0.0000000000000000
  0.3532197168655907  -0.0593474025151865   0.0000000000000000
  0.9602493272443249   0.0055486932681955   0.0000000000000000
  0.0338165335406938   0.0300858994339835   0.0000000000000000
  0.0380150454409591   0.0316864823247920   0.0000000000000000
  0.9557225431564565   0.0061636004358678   0.0000000000000000
  0.0424489136491938   0.0332538049970267   0.0000000000000000
  0.0471161015618897   0.0347866669642923   0.0000000000000000
  0.9509632887889385   0.0068066585927330   0.0000000000000000
  0.9459737541185675   0.0074771441085412   0.0000000000000000
  0.0520144617255517   0.0362838733443521   0.0000000000000000
  0.9353156990700551   0.0088958033238094   0.0000000000000000
  0.0624935317401540   0.0391666944281135   0.0000000000000000
  0.0738633102849253   0.0418930490455120   0.0000000000000000
  0.9237713694002159   0.0104115616199952   0.0000000000000000
  0.0861021343485112   0.0444536401350998   0.0000000000000000
  0.9113626006299211   0.0120184567085017   0.0000000000000000
  0.0991843220904188   0.0468392525175462   0.0000000000000000
  0.8981160438094651   0.0137076731266115   0.0000000000000000
  0.1130825239435962   0.0490420513187447   0.0000000000000000
  0.8840586036192291   0.0154712343488011   0.0000000000000000
  0.1277704569818227   0.0510562821360933   0.0000000000000000
  0.8692172405930260   0.0173025513845012   0.0000000000000000
  0.1432165537277111   0.0528747486397878   0.0000000000000000
  0.8536242574066383   0.0191927758449732   0.0000000000000000
  0.1593891517258480   0.0544918666322352   0.0000000000000000
  0.8373107708732270   0.0211334928345504   0.0000000000000000
  0.1762568877862003   0.0559042074398506   0.0000000000000000
  0.8203090254010921   0.0231167394087162   0.0000000000000000
  0.1937838830953411   0.0571083152030304   0.0000000000000000
  0.2119350283118140   0.0581032137003017   0.0000000000000000
  0.8026551790260408   0.0251343402747870   0.0000000000000000
  0.2306739195716207   0.0588890258904683   0.0000000000000000
  0.7843840851007032   0.0271778200327233   0.0000000000000000
  0.2697570552113356   0.0598365818878674   0.0000000000000000
  0.7461418312636445   0.0313078740273454   0.0000000000000000
  0.3107174073396524   0.0599745523895525   0.0000000000000000
  0.3532197115457904   0.0593474026374948   0.0000000000000000
  0.7058944074605978   0.0354399891145804   0.0000000000000000
  0.6639684082655058   0.0395008030201497   0.0000000000000000
  0.3969170500997217   0.0580119078642495   0.0000000000000000
  0.6207078374111498   0.0434191086291270   0.0000000000000000
  0.5764634578798972   0.0471137381129498   0.0000000000000000
  0.5315950336908907   0.0505057458089039   0.0000000000000000
  0.4864703541532008   0.0535094607315534   0.0000000000000000
  0.4414549133024901   0.0560390636939180   0.0000000000000000
  0.9901595609719056  -0.0023783411927147   0.0000000000000000
  0.0326649145266362  -0.0334200843455863   0.0000000000000000
  0.9878329678703356  -0.0027145673674890   0.0000000000000000
  0.0733998606732272  -0.0440344159407381   0.0000000000000000
  0.9922372924577029  -0.0020726951087579   0.0000000000000000
  0.8846838814295012  -0.0208009306521702   0.0000000000000000
  0.9852539181750185  -0.0030832573491977   0.0000000000000000
  0.8205556230767344  -0.0253024477924150   0.0000000000000000
  0.9824277530968584  -0.0034836508822686   0.0000000000000000
 -0.0022154120548041  -0.0049277430541563   0.0000000000000000
[...]
POINT_DATA 4142
SCALARS continuity float
LOOKUP_TABLE default
-0.005370414430429636
-0.005059238610584615
-0.005372352164434506
-0.00482330639750189
-0.004627313605174971
-0.0071145314968012055
-0.004443166273901897
-0.004297485880228906
-0.005181860798959859
-0.004167975852211215
-0.007742356454854551
-0.004070408876871605
-0.09146378654310443
-0.003977934153301395
-0.003935856552213064
-0.030461857400520646
-0.0039010624054663257
-0.08931228561414263
0.005322851719075106
-0.0037958986629282585
0.005806446713071906
-0.007118395355378294
0.0049643388141776615
-0.003872111897841489
0.0046483322126736224
0.005553817186756509
-0.004725795792330972
-0.0038453501936429805
0.004387089395292187
0.004172836928816666
0.006161237757916158
-0.0038245601236355595
0.004022920231725983
-0.006743893496577025
0.0059363755239998685
0.004334926839470894
-0.003765016943536193
0.003923251761944891
0.003737737258584419
0.005589382403864871
0.0038176493504871313
0.003007515575505303
0.003691694078112026
-0.003657716363477728
-0.005047634988403398
0.00502408274458939
0.003096631968276244
0.0027578033589742324
-0.0034228379836157407
-0.0034873658695902922
-0.003292169960277203
0.0045212765236908965
-0.005149209278094468
0.003636136061353299
0.009625108469863244
0.005136453935536776
0.0060052819325204405
0.0016158300273266335
0.009708947833040358
0.007190309258096662
0.0051481160033064405
-0.0033376126744944713
0.0025600582548250994
-0.004838005446623853
0.004565229241571089
-0.0032641017420078997
0.0036570751817595623
-0.0032087001132033023
-0.004664343925262342
0.0038755138528071852
-0.003276187211706537
-0.004408837763433787
0.004024679403957626
0.004138189637579922
-0.0030837040342114883
-0.0042265269776490845
0.004123534813865423
-0.003337713808634516
0.004193857471811857
0.004170394225224699
0.0037909617067244964
-0.0036474607557467763
0.00392550037560002
-0.004056842964411208
0.002936688819119953
0.0042269384680963034
0.004217173433661451
0.0035079026885253928
-0.003882293981988948
-0.003975707583960689
-0.00391298003606238
0.002702977883707937
0.003288269245275889
-0.0038295361422174745
-0.0033179400167958244
-0.0023771346726483475
-0.0037830287435046232
0.000518717277042823
-0.0011310522219641886
0.00314231554980452
-0.0036955091641985693
0.0007743055397236598
-1.5729037702382023e-06
-0.0035973342846394207
0.0030471541100658816
0.0029627583174340194
-0.0035684861709808285
0.002865303074912513
0.0019658441230440684
-0.0034992763724762716
-0.003450131190536725
0.0037954013434203827
-0.0034607042655461972
0.001861065890982978
0.0029367259501246676
-0.0033826027969344435
0.0031296320283171358
-0.0033446699281919003
0.0032824524750953454
-0.003149031385923845
0.003408341477118134
-0.0030675651004697653
0.0035169002588765776
-0.0028494920001251724
0.003596777327927206
-0.0028246760703829815
0.0036376037106270573
-0.002654922724250251
0.0036439389886669567
-0.0027133360859224044
0.0034599141035595725
0.0025506623280720482
-0.0025108741270020744
0.0024674183005193796
-0.002680114123791553
0.00040586849544229286
-0.0024358785406012767
0.0007277707953219488
-4.317826876421222e-06
-0.0025577892172221673
-0.0029713563055903396
-0.0010500468877969395
-0.0032342025052489154
-0.0034271116737421216
-0.003408434359079729
-0.003019619209824164
-0.002188492188566966
-0.005514018112083619
0.007619070955513824
-0.005058405961573169
0.004022964019799907
-0.005254694207667897
-0.003349551464683004
-0.0048318209907626695
-0.003299175173680907
-0.004637286608093259
0.005083191471633923
-0.008482475058276562
0.00669429567093963
-0.0044591340284181056
0.001116977355277
-0.00431888611923485
-0.004816329597825672
-0.002727141626113098
0.00619098835440837
-0.004194141280095183
0.0031131686320809036
-0.02249749302752752
-0.0033049768105522233
-0.0041029126859553925
-0.0033696696549837236
-0.0025964486562916555
0.007300764946141577
-0.004014810524617329
0.00732816588622296
-0.003976473554645574
-0.004436362442587253
-0.0470375765194296
-0.04685048703516989
-0.025775731056656724
-0.0249712477600384
-0.023264755133989873
-0.024835725356696786
-0.02565349303656841
-0.003945705995451133
0.00957898595606388
-0.0034563849431648204
0.004949307433304895
0.0027793256128312484
0.010852772201145782
-0.0038493882447433766
0.00813711342792439
0.0031039093850210014
0.006686002377088146
-0.02190979304117858
0.006989498945504593
0.002600856308382927
0.00847963237790455
-0.003913713973256289
0.0009850991109488616
0.0025016951007776765
0.007858844173825387
0.00323040307011355
-0.003611252524877109
-0.002469113319595776
0.007689571357664132
-0.0039008376648664712
0.003576915609955091
0.002455629753828528
0.007373338266920139
0.0024441950060750117
-0.004823986293556879
0.003749436433472467
-0.005177274114482607
-0.00387848554819349
0.0021245596455650826
0.002481958302854669
0.004420070599056586
-0.008134189380477878
0.005740880669295714
0.0041087374134595326
-0.003323108984553453
0.004909165745452766
0.003762080834979003
-0.0038191987580340485
-0.003511605052477167
0.0025453184318320362
0.00524639174394814
0.004967532740873937
-0.003450882788155727
0.004498127733225619
0.001335911758499517
0.002592368931675086
0.0036929757552224053
0.004682132666808939
0.006066983619392142
0.002623520193133597
0.006280897199419549
-0.0037115990567950733
-0.004627007930747619
-0.004960137131581549
0.007304896266440961
0.004777117232565374
-0.0033989325328621024
0.005059222932806583
-0.0047392221647069134
0.002118535211064708
0.0019837249756590176
-0.003475144003965395
-0.003676956578833141
-0.003541048377091622
-0.0034531443480234226
-0.0033449003692822533
0.004467593001531053
0.0031055121195342006
-0.003498230057534568
-0.00530579283572117
0.005943010936132061
0.005878915428378976
-0.0032748740952437865
0.006964340791327028
0.004649206043151443
0.003282820278844052
0.0008009945799241218
0.004138634281396585
0.007683685671938314
0.003894274763836471
0.006506774474235014
0.008808840959675601
0.006387654036340524
0.0060802128414394
0.008781685544828699
0.0028549243286043638
0.004870891417605585
-0.0033897086086316706
-0.005112341994843415
0.0019790356072296434
-0.0037794309483609413
-0.0048458773205310324
0.007717875226109453
0.0023848274096635196
0.006811286895272271
-0.0033187897880488696
0.005952964707040743
0.003055401984891848
0.007900022322394087
-0.003280721565297181
0.003334848338582033
-0.00468101915308186
-0.0063202778742603724
0.003369304753677867
0.005661659552172977
-0.0033090781421842965
0.00510584270344076
-0.004423955845746769
-0.00417079755325161
0.003597157404422449
-0.0038350716874277963
0.0020856591486566028
0.007618046560035144
-0.0031460838655282047
0.007976280309699997
-0.00424842270213258
0.008793730568843947
0.0037585074625139615
0.0054002844213099825
-0.0033949517661499163
0.007587963615020793
0.0038788254595400434
0.005756420090395618
0.0039529410476664886
-0.003162594930055544
0.0019020749497608465
-0.003856213526297318
-0.0037073428088432465
0.005252990165842261
0.0037304567296229715
-0.0014291555648773381
-0.0040845084033850395
0.0040641757726893515
0.0027767223760997634
0.007765930701848668
0.003952652869189212
0.008062929485361303
0.00397596051395414
0.006160385525042424
0.0017756941439430122
0.0006142781512635132
-0.003946478242785326
-0.0038743791868340325
-0.0040452825260821786
0.007890271777871972
-0.003945471726897714
0.006610116993133347
0.00250133560505493
0.003331196978670985
0.00171743735375619
-0.01099371501583355
-0.0039048394070615665
0.007766530783130571
-0.0034005152504039647
0.00755970170899774
-0.0024683432261528816
-0.003193240323458443
-0.003819557352717389
-0.003807858057487916
0.00037850984329947915
-0.0033263998248600824
-0.0012329678717636556
0.007066833196105397
0.0017152712767722884
0.008730414755973881
-0.0037364943643868817
0.02917148561900465
0.0006475416155538664
0.005021486832467518
-0.00011523322790269357
-0.003911406648708421
-0.0036416455978604237
-0.0031050615430509676
0.00174929284975972
-0.003946397134118184
0.0017888930993960653
-0.004708116682348234
-0.0036171506662459126
-0.003988555441808567
0.0018260269604259258
-0.003582354144941656
0.0013485121939170036
0.027791634870112932
-0.003557382071098137
0.007842909735065798
-0.003495448931029458
-0.004082427738111188
0.002358854252038866
-0.0030558837208045785
-0.0035218649021779985
-0.0114610213657548
0.0012633034460565904
-0.0032601624746232314
0.0023052288384914823
-0.004179640713851354
-0.0034416515720620874
0.0034813732744469034
0.00258684820516582
-0.0018868855621540013
-0.003404118270213985
0.005640677939040794
0.002814539843780309
-0.004312133889720865
-0.0032079512684362816
-0.002400987520378629
0.003001338792385346
-0.0044613763103304605
-0.003125972750186575
-0.003221724717112076
0.003162157361710342
-0.0066722226796685925
-0.002907292473164765
0.004389668586109786
0.0032846640586111178
-0.004645576618174754
-0.0028827552837322476
-0.004552186265932848
0.0033601884883826556
-0.0048405778057739966
-0.002712376552670382
0.008625157236695305
0.0033934827474068974
-0.00505939347818969
-0.002771551421753061
0.005509221379129772
0.00323511406987274
-0.005047312469341507
0.002366373560267245
-0.005476276205194213
-0.002589231644247743
-0.00539360504131287
0.002235089962711633
-0.0032607209405725902
-0.002715760748607832
-0.016057476845299967
0.0002453971666115561
0.0043903340712540635
-0.002505771956685117
-0.011475176217338044
0.0005835823043045766
-0.004280910526443883
-0.0001327319030229293
-0.012027774844835809
-0.002621327277906586
0.008520198907013488
-0.003037691145975468
-0.011722393220334174
-0.0011647152883293792
0.005357317566456608
-0.003305603594067319
-0.018873872736467623
-0.0035042534634154455
-0.004563676651660685
-0.0034925020167206372
0.0074647075336414905
-0.0031116534052147604
0.007891735092205879
-0.0022914152617958695
-0.01853166334370333
-0.003257596361262992
-0.0033298500882940445
-0.004674308483954407
-0.0037059760554382384
0.004147357585245373
-0.0031889798683505215
-0.003293775455834346
0.005341994669958233
-0.004415526190852817
0.0006643096932515828
0.004225212830472478
0.006657651694319528
0.00613481788938917
0.00856842443642604
-0.003129932267763477
-0.006238713588192999
-0.00423948931463823
0.007653669470090914
0.004270814936312024
0.007896336414880047
-0.0033839594610028815
-0.004844178763732621
0.0043063475730794835
-0.0037563407631368995
0.004213131943911728
0.004843346734214496
0.0056210342791101296
0.007154340246481903
-0.0036967194684680974
0.003811627784821437
0.003958465238040683
0.008129365946305363
-0.0040698664420904685
0.001850511808683557
0.002966735720559878
0.00830242348201971
0.004313014325835569
0.003416592826506096
0.004281430963459962
-0.00377099901884761
0.005156935943724915
-0.0036032258991321887
-0.003935928008639478
-0.0032537355546538673
-0.004034032057238863
0.005140307950783369
-0.0039254930458425714
0.007550324510959999
0.0026685929271894823
0.007135772891076743
0.004757396695499462
0.008384135136445516
-0.003890046685792147
-0.003194206087586215
-0.00337912253348385
-0.003785796249169652
-0.002436014172654488
0.0050586987774116085
-0.003794699574025937
0.008356272246104114
0.0005149657362389872
-0.002968295913756574
-0.0011821314592186283
-0.01010670437285051
0.004434772177745111
0.003715278379361617
-0.0037079651706554413
0.00799575827054681
0.0007619501474240227
0.00230443489073912
-3.753180298504189e-05
-0.0037169403741880674
-0.0036075021577516428
0.005073239343267118
0.004166893483832268
0.00820397820106348
0.003931877427323329
0.00031765498015241366
-0.003579457856077233
0.0024650619653582904
0.0037521098900793813
0.005170095842058903
0.003002199687419785
-0.003822594819096849
-0.003512615320713415
0.0018268919455330802
-0.003452736072522936
-0.0038558731155249487
0.0037433233600814206
0.0053915306281010055
-0.003474953660558622
-0.003894262689376839
0.0024603177267452417
-0.002981836027625864
0.0033240846767747367
0.0022744915906670895
-0.0033956900733069116
-0.003248275659218107
0.003406610810414709
-0.0039874740547793065
-0.0033618900369121324
0.006589002319668451
0.0034743800128832093
-0.010531710972911858
-0.003170137803923161
0.007292050345826172
0.003538447898717978
-0.0040804800834032635
-0.003094003069285488
-0.002845530818637028
0.0036054862897144896
-0.003584984455508384
-0.002879837532615819
-0.004480905341595526
0.0036570473810105942
-0.004209248886157124
-0.0028583980209549993
-0.003401952377385433
0.003675146458999571
-0.0043527796253479065
-0.0026911498084487354
0.005740281382399228
0.003660197425458836
-0.006573505541402939
-0.0027516530081581184
-0.00287218150828321
0.0034672753218958612
-0.0045319771341187105
0.0025579945583958804
-0.003185492997121081
-0.002564525662759542
-0.00472791525714771
0.0024043198936701594
0.0019345940217774785
-0.002700079826276462
-0.005150593229683379
0.0003846226552516399
0.0077692736718502275
-0.0024878087357665815
-0.0049553373753716285
0.0007014337043855494
-0.00011987686539448257
-5.182444743389588e-05
-0.00532847531121319
-0.002609734095011384
-0.003153315674731379
-0.00302693870518608
-0.014466988356740361
-0.0011134921115003701
0.0024720762989390035
-0.003295966087731932
-0.014152531504107583
-0.003493145280190439
-0.004333415315301888
-0.003479173322147564
-0.014579328306036546
-0.003091581049291333
0.006010499021069203
-0.002259176954695081
-0.016138015296893207
-0.003622617499596384
-0.0030968202467741503
0.0018684039418445852
-0.004112223432896952
0.004763637563508607
0.005212378254358065
0.001955038613778859
-0.0033528474553382796
0.008189173586536097
0.005097429174207532
0.0010508732338382612
0.004720463927513645
0.007756416571263812
0.007876359169223917
0.0016773910060196094
-0.0036681348507273366
-0.003631902016497956
0.004406838110206859
-0.003361453348172781
-0.003951475931141916
-0.0033377809714441567
0.003359666601102592
0.002798734305577915
0.004988395122033698
0.005144301105510419
0.0048634180309507944
0.0037611015698628112
0.007760663082165661
0.007251644113882511
-0.003906913266344111
0.002886749763443546
-0.0039995511743955965
0.006699169630166119
-0.0038144935738807545
-0.0027356914895127578
0.003018459110720486
-0.0068282116526432865
0.007569155042659902
0.002366961414599686
-0.0038441721783322854
0.005657894740802857
-0.003315629652669735
0.001461046675664883
-0.0023456045358180994
-0.003567700411236455
-0.003687681672790256
0.0028655884237028194
0.0008022579379333584
0.006143141556991479
-0.0010525797279654415
9.422550767146113e-05
0.007320563779521075
0.00530920609236825
-0.0036058841857015043
0.002983601571591658
0.0010014705924535495
-0.003673757650052559
0.0001448357083292862
0.0010670406065352472
-0.0035063206996207414
-0.0037030944399742637
0.007030141025490332
0.0028118081896658987
0.006702187109619111
-0.0037355927772957406
-0.0034814010050187778
-0.0027322024571927606
0.0063951621506399894
0.004660796819818129
0.005498589453227195
-0.003126559231136353
-0.0034143676408550138
-0.003826541524795118
-0.0033557661082765423
-0.005031124764605345
0.005943160191450238
0.0032057900376896435
-0.0033846483949895485
-0.007211630253844989
0.004478688267514982
0.008171246552033794
0.005033134064502985
-0.0039087148316516
-0.00331088094315325
-0.002611325977171706
0.004846673324251299
-0.0037387014498636603
-0.0032836202137775396
-0.004224816975218062
0.004670538213830878
-0.004026613369842682
-0.003098470981390829
-0.0031639969509248294
0.004530009789986088
-0.004158110819518303
-0.003029909491572805
0.0029471656170007633
0.004436806073967817
-0.0058032134886601755
-0.0028213780134452976
-0.0026487890618254488
0.004361403931327946
-0.004327778866847733
-0.002807206867318763
-0.003070440491849968
0.0042782001085863745
-0.0045127062595636215
-0.002643356636754929
0.001187871179457678
0.004183002685486002
-0.00498656448762704
-0.0027086559630578734
0.009037700365199944
0.003926146292438173
-0.0047448751345945134
0.0029570333247275066
-0.0023833097132250334
-0.0025246792335679607
-0.005057513806247937
0.0027591646005119676
-0.003043243598712352
-0.002663850515690544
-0.009216050156473655
0.0006784333900100662
0.001530983777861521
-0.002451585057590685
-0.010272327402890103
0.0009486491660494999
-0.004074653381799684
0.0001349571987455438
-0.009401515006430114
-0.0025773311031568667
0.0026540740867997538
-0.002999009163254003
-0.009109257157492941
-0.0009819825981915642
0.009004959005751507
-0.003267342370032565
-0.008812743982142674
-0.0034609083999998587
-0.004536617447789076
-0.003436415253900599
-0.0031987508729950137
-0.003030273074161627
-0.003086758216829553
-0.0021698018044787573
-0.003644594126348074
0.0015696224335325648
-0.0040595413530555464
0.005950190789449082
0.007097903826071206
-0.004212349412586337
0.006185286295633313
-0.0034296202051887913
-0.0030314796011167676
0.0002533323963994038
-0.0039005329052980344
0.0026357421845089146
0.006733927352661505
0.0010040285423809031
-0.0032899252146577134
0.005287204750812293
0.006421790438669802
0.0005890696707763124
0.005619674739006714
0.0046534443643227764
0.006682583925134497
0.0007967087772055378
-0.0036054663467929493
-0.0034334212743490806
0.005215354409736263
0.00013783182715288312
-0.0037490257143841603
-0.004016855091654785
0.004084346025932257
0.0015777155095891245
0.006142733529206178
0.0027591119885819852
0.005876659893796141
0.0012254992321034828
0.00716321042625247
0.0041003507731103206
-0.0038381663049756425
0.0017785788093524478
-0.003915652482515308
0.0036132888194815643
-0.0036232535582480813
-0.002518671713168508
0.0036672841219810084
-0.005980997487255308
0.007593140386209769
0.0016143541274916686
-0.0037330418097069737
0.0029842265130974074
-0.0031635805031843905
0.0011122486380542983
-0.002136878224138531
-0.0033543278224781566
-0.003503973348914091
0.001757138973892195
0.001346026182856936
0.003239605623281949
-0.0007700505876015328
9.673474880755143e-05
0.007933907749452733
-0.0025954082760944472
-0.0034338107576819443
0.0018689103936718424
0.0014634927224651197
-0.0034624402085315386
0.0005151043145027018
0.000656085502163063
-0.003334625959914185
-0.0034824977387795
0.008156736608287337
0.0014017588738684493
0.008246522353997043
-0.0035017258562542656
-0.0033158291802506987
-0.002500982862032451
0.008265891970523251
-0.002989473272667925
0.007672829232228066
-0.0029552687868503007
-0.003256705045350017
-0.003590377203743613
0.008115394846927445
0.0009724951960882013
-0.003235713515096492
-0.00632906948819043
0.006880200650150801
0.006402450488703023
0.007285678633547262
-0.0036567416193534095
-0.003166714408584332
0.00014390468343336983
0.006921178301550991
-0.004382480498456987
-0.0031505139578629337
-0.003943511495019007
0.0065213407256910945
-0.0037694616164171504
-0.00297466700069323
-0.0028938089617812574
0.0061471322369770895
-0.003896565192563071
-0.0029179517982983612
0.0012837236335587901
0.005839256805125132
-0.005336845758430503
-0.0027183829888305336
-0.0024308618253869006
0.005579731150241329
-0.004070863559133598
-0.0027135646840264396
-0.002903403145025201
0.005342451222980248
-0.00425191184899399
-0.002556630406625113
0.0008164084649774535
0.005121142545237649
-0.004832637760463914
-0.002628779148388222
0.007901409905000463
0.004763250118893793
-0.004502971875435835
0.0037039062940773223
0.0006494258385156922
-0.002450488824875439
-0.004763445672880239
0.0034243644858656733
-0.0028855291310302435
-0.0025938851750348466
-0.009634367750175177
0.00123966285135904
0.0011671446307950062
-0.002381827648528609
-0.0104197924356463
0.001425530512386356
-0.003741340989911314
0.0005165760045795571
-0.009784704695420185
-0.002512414799363347
0.0005317677488786753
-0.0029360624334454077
-0.008485906883304504
-0.0006938766796745143
0.008588520550901767
-0.003201187296253151
-0.008233003644282491
-0.003380623585068114
-0.004207222247558541
-0.003330010916936898
-0.002968205683862198
-0.002881803008074731
-0.002926085069578107
-0.0019610521711195938
-0.003439192562849688
0.00023769312823720997
-0.0037891846003703412
0.0026723586083592945
0.008745999187656454
-0.003951918887070375
0.0032098833807070095
-0.0031783140555316793
-0.0029215343574984175