# vtk DataFile Version 1.0
GRUMMP topologically 2D mesh
ASCII

DATASET UNSTRUCTURED_GRID
POINTS 4142 float
  0.9902132100051211  -0.0013897599745845   0.0000000000000000
  0.9878682672001325  -0.0017209544766007   0.0000000000000000
  0.9922830260938109  -0.0010965337451688   0.0000000000000000
  0.9852627687065505  -0.0020876945602550   0.0000000000000000
  0.9824126515147726  -0.0024873693035198   0.0000000000000000
  0.9941016532545700  -0.0008382294190312   0.0000000000000000
  0.9793229395886266  -0.0029189889321549   0.0000000000000000
  0.9759912936709813  -0.0033826574903297   0.0000000000000000
  0.9957253756688895  -0.0006072067599891   0.0000000000000000
  0.9724158418644283  -0.0038783672872607   0.0000000000000000
  0.9972114818934485  -0.0003956828894990   0.0000000000000000
  0.9685983419668763  -0.0044053177853816   0.0000000000000000
  0.9986172604849257  -0.0001958749290171   0.0000000000000000
  0.9645418982154840  -0.0049624143705746   0.0000000000000000
  0.9602493276520160  -0.0055486932126648   0.0000000000000000
  1.0000000000000000   0.0000000000000000   0.0000000000000000
  0.9557225436143375  -0.0061636003738353   0.0000000000000000
  0.9986172604763917   0.0001958749302285   0.0000000000000000
  0.0136778115501445  -0.0198442283865115   0.0000000000000000
  0.9509632892996972  -0.0068066585239019   0.0000000000000000
  0.0111799405480040  -0.0180409152078963   0.0000000000000000
  0.9972114818757430   0.0003956828920181   0.0000000000000000
  0.0164236219435115  -0.0216216850259729   0.0000000000000000
  0.9459737546847580  -0.0074771440326796   0.0000000000000000
  0.0194159763686392  -0.0233724637256901   0.0000000000000000
  0.0089312659290954  -0.0162123970812813   0.0000000000000000
  0.9957253756403164   0.0006072067640564   0.0000000000000000
  0.9353156997544615  -0.0088958032333210   0.0000000000000000
  0.0226532123065557  -0.0250954152174871   0.0000000000000000
  0.0261336316774566  -0.0267893559859237   0.0000000000000000
  0.0068429846519911  -0.0142695304151425   0.0000000000000000
  0.9237713702124288  -0.0104115615140689   0.0000000000000000
  0.0298554003449755  -0.0284531869488138   0.0000000000000000
  0.9941016532123735   0.0008382294250309   0.0000000000000000
  0.0050308200222286  -0.0123013782195995   0.0000000000000000
  0.0012596550434314  -0.0062543845982477   0.0000000000000000
  0.9113626015789812  -0.0120184565864932   0.0000000000000000
  0.0338165365583016  -0.0300859006297539   0.0000000000000000
  0.0005600587198625  -0.0041872521188657   0.0000000000000000
  0.0034956879705714  -0.0103096477045821   0.0000000000000000
  0.0380150486067802  -0.0316864834866382   0.0000000000000000
  0.0001400674572995  -0.0020989425108620   0.0000000000000000
  0.0424489169588349  -0.0332538061244847   0.0000000000000000
  0.8981160449036193  -0.0137076729882106   0.0000000000000000
  0.9922830260341767   0.0010965337536290   0.0000000000000000
  0.0022384105171692  -0.0082946477552229   0.0000000000000000
  0.0000000000000000  -0.0000000005380880   0.0000000000000000
  0.0471161050109934  -0.0347866680569130   0.0000000000000000
  0.8692172420003259  -0.0173025512123363   0.0000000000000000
  0.8840586048664243  -0.0154712341935952   0.0000000000000000
  0.8536242589802903  -0.0191927756559575   0.0000000000000000
  0.0520144653095357  -0.0362838744017245   0.0000000000000000
  0.9902132099234322   0.0013897599861408   0.0000000000000000
  0.0001400673054027   0.0020989413744649   0.0000000000000000
  0.0005600583994229   0.0041872509286527   0.0000000000000000
  0.0089312642537700   0.0162123956290166   0.0000000000000000
  0.0068429832427153   0.0142695290019493   0.0000000000000000
  0.0022384098100130   0.0082946464730838   0.0000000000000000
  0.0034956870455263   0.0103096463775504   0.0000000000000000
  0.0050308188630767   0.0123013768482443   0.0000000000000000
  0.0111799386902237   0.0180409137864515   0.0000000000000000
  0.8373107726191357  -0.0211334926288444   0.0000000000000000
  0.0624935355792051  -0.0391666954139108   0.0000000000000000
  0.9878682670932252   0.0017209544916756   0.0000000000000000
  0.0136778095139640   0.0198442269960848   0.0000000000000000
  0.8203090273240524  -0.0231167391866414   0.0000000000000000
  0.0738633143603066  -0.0418930499584099   0.0000000000000000
  0.8026551811301268  -0.0251343400368426   0.0000000000000000
  0.9852627685719384   0.0020876945791685   0.0000000000000000
  0.0861021386417074  -0.0444536409739349   0.0000000000000000
  0.7843840873894279  -0.0271778197795966   0.0000000000000000
  0.9824126513500548   0.0024873693265746   0.0000000000000000
  0.0991843265815398  -0.0468392532814141   0.0000000000000000
  0.0164236197329729   0.0216216836667636   0.0000000000000000
  0.7461418339277840  -0.0313078737465108   0.0000000000000000
  0.9793229393907722   0.0029189889597428   0.0000000000000000
  0.1130825286139299  -0.0490420520078216   0.0000000000000000
  0.7058944105034720  -0.0354399888107516   0.0000000000000000
  0.1277704618123611  -0.0510562827506626   0.0000000000000000
  0.1762568929815641  -0.0559042078350805   0.0000000000000000
  0.0194159739879911   0.0233724623981675   0.0000000000000000
  0.6639684116827792  -0.0395008026994765   0.0000000000000000
  0.1937838883744062  -0.0571083155282771   0.0000000000000000
  0.9759912934368556   0.0033826575228533   0.0000000000000000
  0.2119350336566717  -0.0581032139582273   0.0000000000000000
  0.1432165586985055  -0.0528747491799113   0.0000000000000000
  0.1593891568184451  -0.0544918670991958   0.0000000000000000
  0.0226532097601106   0.0250954139222151   0.0000000000000000
  0.6207078411914361  -0.0434191082996254   0.0000000000000000
  0.5764634620046084  -0.0471137377839725   0.0000000000000000
  0.9724158415910057   0.0038783673250912   0.0000000000000000
  0.2306739249637577  -0.0588890260835713   0.0000000000000000
  0.0261336289695199   0.0267893547234291   0.0000000000000000
  0.5315950381341085  -0.0505057454921963   0.0000000000000000
  0.4864703588817339  -0.0535094604401647   0.0000000000000000
  0.4414549182767121  -0.0560390634426787   0.0000000000000000
  0.9685983416513994   0.0044053178288238   0.0000000000000000
  0.2697570606452168  -0.0598365819607799   0.0000000000000000
  0.3969170552729402  -0.0580119076690758   0.0000000000000000
  0.0298553974799863   0.0284531857194991   0.0000000000000000
  0.9645418978552561   0.0049624144199126   0.0000000000000000
  0.3107174127482247  -0.0599745523566999   0.0000000000000000
  0.3532197168655907  -0.0593474025151865   0.0000000000000000
  0.9602493272443249   0.0055486932681955   0.0000000000000000
  0.0338165335406938   0.0300858994339835   0.0000000000000000
  0.0380150454409591   0.0316864823247920   0.0000000000000000
  0.9557225431564565   0.0061636004358678   0.0000000000000000
  0.0424489136491938   0.0332538049970267   0.0000000000000000
  0.0471161015618897   0.0347866669642923   0.0000000000000000
  0.9509632887889385   0.0068066585927330   0.0000000000000000
  0.9459737541185675   0.0074771441085412   0.0000000000000000
  0.0520144617255517   0.0362838733443521   0.0000000000000000
  0.9353156990700551   0.0088958033238094   0.0000000000000000
  0.0624935317401540   0.0391666944281135   0.0000000000000000
  0.0738633102849253   0.0418930490455120   0.0000000000000000
  0.9237713694002159   0.0104115616199952   0.0000000000000000
  0.0861021343485112   0.0444536401350998   0.0000000000000000
  0.9113626006299211   0.0120184567085017   0.0000000000000000
  0.0991843220904188   0.0468392525175462   0.0000000000000000
  0.8981160438094651   0.0137076731266115   0.0000000000000000
  0.1130825239435962   0.0490420513187447   0.0000000000000000
  0.8840586036192291   0.0154712343488011   0.0000000000000000
  0.1277704569818227   0.0510562821360933   0.0000000000000000
  0.8692172405930260   0.0173025513845012   0.0000000000000000
  0.1432165537277111   0.0528747486397878   0.0000000000000000
  0.8536242574066383   0.0191927758449732   0.0000000000000000
  0.1593891517258480   0.0544918666322352   0.0000000000000000
  0.8373107708732270   0.0211334928345504   0.0000000000000000
  0.1762568877862003   0.0559042074398506   0.0000000000000000
  0.8203090254010921   0.0231167394087162   0.0000000000000000
  0.1937838830953411   0.0571083152030304   0.0000000000000000
  0.2119350283118140   0.0581032137003017   0.0000000000000000
  0.8026551790260408   0.0251343402747870   0.0000000000000000
  0.2306739195716207   0.0588890258904683   0.0000000000000000
  0.7843840851007032   0.0271778200327233   0.0000000000000000
  0.2697570552113356   0.0598365818878674   0.0000000000000000
  0.7461418312636445   0.0313078740273454   0.0000000000000000
  0.3107174073396524   0.0599745523895525   0.0000000000000000
  0.3532197115457904   0.0593474026374948   0.0000000000000000
  0.7058944074605978   0.0354399891145804   0.0000000000000000
  0.6639684082655058   0.0395008030201497   0.0000000000000000
  0.3969170500997217   0.0580119078642495   0.0000000000000000
  0.6207078374111498   0.0434191086291270   0.0000000000000000
  0.5764634578798972   0.0471137381129498   0.0000000000000000
  0.5315950336908907   0.0505057458089039   0.0000000000000000
  0.4864703541532008   0.0535094607315534   0.0000000000000000
  0.4414549133024901   0.0560390636939180   0.0000000000000000
  0.9901595609719056  -0.0023783411927147   0.0000000000000000
  0.0326649145266362  -0.0334200843455863   0.0000000000000000
  0.9878329678703356  -0.0027145673674890   0.0000000000000000
  0.0733998606732272  -0.0440344159407381   0.0000000000000000
  0.9922372924577029  -0.0020726951087579   0.0000000000000000
  0.8846838814295012  -0.0208009306521702   0.0000000000000000
  0.9852539181750185  -0.0030832573491977   0.0000000000000000
  0.8205556230767344  -0.0253024477924150   0.0000000000000000
  0.9824277530968584  -0.0034836508822686   0.0000000000000000
 -0.0022154120548041  -0.0049277430541563   0.0000000000000000
[...]
POINT_DATA 4142
SCALARS continuity float
LOOKUP_TABLE default
0.005518527338770596
0.0036081677792480036
0.0077029493745352775
0.002287829226953213
0.0013398728918277206
0.011950793153004654
0.0006395879342694566
0.0001433437002333345
0.02109856070696363
-0.00024124565534261246
-0.003737501185399028
-0.0005301541338903277
-0.0027200910683858243
-0.0007643846481614995
-0.0009037632124779807
0.001794378070639333
-0.001002230354180579
0.009477282081691152
-0.01871188625337213
-0.0010697937378588104
-0.021564356507009604
0.003331031058450743
-0.01592204946596327
-0.0011247988710459754
-0.013263851466870837
-0.023082084292501567
-0.020918215847456352
-0.0009656018693933779
-0.010827442742727894
-0.008684059337052708
-0.02525351911080428
-0.0008844165392618063
-0.006837451619640579
-0.012115301326421414
-0.025443311935696905
-0.017053438185243852
-0.0007256437993719932
-0.00527701669570205
-0.011833080067832966
-0.024224669194751178
-0.00395844410359612
-0.005812898733636839
-0.0028526573831724367
-0.0004930057233898951
-0.0076176007532766914
-0.021314256541148796
-0.0006143963870202933
-0.002204384317645119
8.14577683938973e-05
-0.000269338655438784
0.0004103761231471939
-0.0005191602444637723
-0.005486068293796875
-0.0018688727550674018
0.03272487033051975
0.020365897704874864
0.022706920941932423
0.004370756154607298
0.03195739112799887
0.02606435101900105
0.018907103473452348
0.0008970211249962355
0.00047600752968935864
-0.003492809859704688
0.016383112397783017
0.001405116217216804
0.0008598018706138523
0.002097558831108848
-0.0021161484299749202
0.0005781311985069762
0.0025019128726020703
-0.0010634920426686376
0.00032517623142059963
0.013833338264921587
0.004131603035890057
-0.00031670927550169696
9.276263799575618e-05
0.006212387483621932
-0.00018563690097835395
-0.0010048653351004493
0.01143535541115456
0.008738614563111511
-0.0012354422495335627
0.0002500113525371564
-0.001579346926786499
-0.000494906250614892
-0.0007709022600209332
0.009249758692011044
0.011334920348041119
0.013343925670675636
0.00069822669901076
-0.0009659098526433935
0.00732815234673923
0.013857597791224717
0.012166182388936454
0.008326533369837085
0.0010615121987070418
-0.0015963706759219692
0.0034801878038485676
0.005658526268663117
0.0013198471630130138
-0.0017912293972715892
-0.00041634186409026443
0.0015611147830330466
0.004220630009135372
0.003018591723520597
0.0017118525098813462
0.001999268399591589
0.0016935598619793315
0.0017701570507138622
0.0020601223511436655
-0.0004230845252031607
0.0018921338322536781
-0.000666715022521079
-0.001286600887836126
0.0018772779770733316
-0.0008956165703079129
0.0017753194279393333
-0.0005686037430874961
0.0016344523740585476
-0.0003017517921225383
0.0013823378683156906
-1.2000638394849266e-05
0.00107619862086686
0.0002954374403514351
0.0007294760785828699
0.000568344130537434
0.00030595725762416157
0.0007897296216845424
-0.00015836828790049987
0.0010344042749555159
0.0015938291970435732
-0.0008125424213220754
0.0007183731367393002
-0.0013902278983259375
0.0015156137097609053
-0.003007743915174549
0.001113853856690283
-0.00014527251618281839
-0.004767503358013406
-0.007316008442738846
-0.0034842115127489493
-0.00975605850188338
-0.011689898891972273
-0.012261476801869056
-0.01086776852627593
-0.007607283983983903
0.005468143499111363
-0.002738546180276346
0.003398916139832949
0.0005711734589422768
0.006779592076024957
-0.00048105994505135937
0.0021756839794148
0.001294511377268856
0.0012412902396031795
-0.00828362669992581
0.011817441263508388
0.011247507923796777
0.0005546709730317614
0.0004636515991714872
5.9369647496544256e-05
-0.003013274000383977
0.013825081349076177
-0.015679029997841567
-0.00032195275014531384
0.000558613354035046
0.013795236623180034
-0.00013343917049848564
-0.0006075924643546516
0.0007843465896320342
0.05112590876335715
-0.0017556624898908495
-0.0008429231439220302
0.013336406874861834
-0.0009869873049914782
-0.0037472540079984133
0.005080307156680534
-0.010618834936115868
-0.005432322695228365
-3.2817093629037e-05
-0.00035406137936347447
-0.000616311539370421
0.0031625357843340874
-0.0010932279322400985
0.021067625965431876
-0.058042939360759736
-0.0043689994892145674
-0.010409472891938495
0.024309582003071855
-0.0011801834252490027
-0.00022309402085609134
-0.011658740152581625
0.01718204954768776
-0.015922198325968383
-0.000976923456168498
-0.00916889211017018
0.017854321737401705
-0.0012034889414909186
-0.007773024316733237
-0.007959297866205235
0.015428044091385748
-0.012405938099523643
-0.0006456615253147308
-0.013912492904111116
0.013001091796338106
-0.0010742398879108397
0.0002596316575385547
-0.006799896882311332
0.0035215065559616467
-0.005747249268834502
-0.005633391407571261
-0.013511634136578993
-0.004796195079051731
-0.0009865592494392342
-0.009973483784274838
-0.00479665012059966
-0.00044510430340028774
-0.012208051134356456
-0.014128165032805536
-0.013943582020354863
0.00030718662790860574
-0.010961215907276422
-0.01228434670852998
-0.000824229089777525
-0.0003710833954868317
-0.0039669156157625
5.8623085757383614e-05
-0.008075612492864592
-2.3770835936427146e-05
-0.01381258867501713
-0.008661713919508636
-0.0032248820754523654
-0.0011425459957858184
-0.004337537165556714
-0.0002836808415105623
-0.002551239206513854
0.0001502231531185305
-0.0005937571089062632
-0.00529909027249157
-0.006699179535196158
-0.017736725823413405
-0.01287560598447163
-6.994128210913495e-05
-0.00037076248590093164
-0.007377080215133104
-0.0020602032806999594
0.0003913020744400506
-1.5111556290833214e-05
-0.0005992265527474163
-0.00036069098907503725
-0.0004179744022051403
0.0003160329752931846
-0.001634006239662292
-0.001167812914702921
-0.0007066163924062502
-0.005457488972620687
-0.0054691472385295205
-0.00010302023847734714
0.00025741174627006596
0.011967169726103661
-0.00229697370410179
0.01049844235660973
-0.0070417368832309405
0.011711274241217956
-0.019298819385703804
0.009792465474288314
0.0002660217489767839
0.02073423493335994
-0.010580905438769833
0.01536296024089016
-0.0012610794813572655
0.009939413231198091
-0.0031120255811596456
0.0007978187223160478
-0.004040148570604529
-0.0001789022352237869
-0.0008281390087554103
-0.0032786572525531606
-0.0007502474049346194
0.009029081300374553
-0.014790083307819286
0.001308433873887686
0.0038979849517770094
-8.278237544654932e-05
-0.019496820917644434
0.0019516034677103775
-0.003809829796687836
-0.0020011258575854895
-0.009665619185574249
-0.00046324846972904763
0.009473879908366152
0.0024543202944619052
-0.004067354325737437
-0.0009542654765160114
-0.0027653953048275186
-0.0007508208189731829
-0.0009893018625563548
0.008033670826044243
0.014564540370433593
0.004003746106099902
-0.018628593903989688
-0.00022445067454067343
-0.002232205064438632
-0.0009693076452269816
-0.00526532903957261
0.006094367946978388
0.01612387337516443
-0.001208240101814567
-0.006709071928175314
-0.001852802750782472
-0.00023274336000565193
0.007034959434736291
-0.0010707801279954295
0.008610319579875394
0.01419568730263498
-0.002005228932406507
-0.023509037043414543
0.000337957750365156
-0.013552857505692838
-0.0022114806857533712
-0.01685831843518683
-0.001464895592055745
0.01854891736226214
-0.0016821384274236136
-0.008447419336706882
0.00606675680261871
0.0004895846439244675
0.01119196077652103
-0.0011909790040429426
0.013181136125403071
0.01789008858538263
0.0007842518601947198
-0.010432890425883771
-0.001769093574813638
-0.007247786743834439
0.005171136381174108
-0.004904092526625138
0.013665502197589113
0.013073492910892002
0.011943446022825524
-0.0149077016934775
0.008057890989736994
-0.0005790089679518688
0.0011484355197455551
-0.0011714654030802313
-0.002136833401919159
0.0007345559906187584
0.003153945337693247
-0.012610464168798446
0.004322292701495551
-0.0033851730927127403
0.0014071507438706788
-0.08827638243194291
-0.002265179915598827
0.001396976807237327
-0.0008124144344540932
-0.0010890591477451688
0.001654500586210172
-0.0009388798242523969
0.003576148464197546
-0.0009888289957756947
0.002881874556319015
-0.0025410125556698296
0.001808658808482483
-0.0008581980934821085
0.0022422234515306737
-0.0009365308983633942
0.001967025062813441
0.09415313761716101
0.0018850563632124766
0.011472627371279734
0.002146948132141332
-0.0006338761171380327
0.0008030115008445189
9.555902638350172e-05
0.002005597828247791
0.003804735077305807
0.0003404847288398139
0.0012456787016532662
-2.8187606317059893e-05
-0.00036523663685831794
0.0019866437316345526
-0.010181385109389929
0.0004137871059209778
0.02428714016820475
0.0018861000677859643
0.0012967180244536963
0.00072830743208639
-3.7049855191335286e-06
0.0017428667533388442
-0.000856659523509082
0.0009523933300254759
0.0004613496438382296
0.0014906464997418776
0.0018940850177513915
0.0011786930503029074
0.009456118936200438
0.0011819500859087681
-0.014026451387112915
0.0014101937469350218
0.0011008747391417237
0.0008345282875944734
-0.0014348647269713652
0.0016045151574454375
0.001949624007017447
0.00041257171306157016
-0.00019596668539059595
0.001745530742649793
0.007521475840258975
-5.349212843029975e-05
0.0007623693084277081
0.00190009105437118
0.0031489764639654936
0.0022996108321497654
-0.0066608345285002115
-0.0006552216402461561
0.004823006820953605
0.0016056011181420921
0.0023997420882313943
-0.0013401336202513055
-0.004326045737752672
0.002111885837969727
-0.0006734492141115729
-0.002874428867985222
-0.010641190250769551
0.0016308460894372814
-0.0005682231030888171
0.00028614573217799414
0.0009625779977919856
-0.004640985158643506
-0.00458027661704808
-0.007178336527398209
0.012505760921222131
-0.0031322064383504135
0.0002702918019271027
-0.009602161886050224
0.014710346538955225
-0.011515463099933523
-0.002410491921831259
-0.01205584288398853
0.0016146778692774813
-0.01062757757437869
0.009772501670916077
-0.007317355851872137
-0.014543417498974679
0.0019444373406623896
-0.0008050837525076888
-0.0017600017528882736
-0.0008755727805623862
8.90742573787065e-05
0.00019191648505601237
0.002450294601962221
-0.011632850946319022
-0.0007988088167542714
-0.006375056448934615
-0.0003044693755228845
-0.016299793897494932
0.009242005013901034
0.0004596127600249013
0.003998707670887111
-0.007985719501400456
-0.00011494895837649904
-0.0017176829982470114
-0.0006172792306536881
-0.003932791348882313
0.0060801795818019155
-0.003242818827887221
-0.0009314414367947721
-0.001033057973410969
-0.0017360645021444118
-0.0001698089372315659
0.007461353519739288
-0.016128667409008174
0.008596709483142714
0.003971688969137731
-0.001931071008774524
-0.005341572379331432
0.0004139041165295669
-0.0030478108359723454
-0.0021953672530412634
-0.0069515210385963245
-0.0012502571329737618
0.008149438718724679
-0.0015194601234925136
-0.001110503971170261
0.005935261055094259
-0.0012226729451109573
0.011177867763999903
-0.009918211018502222
0.013159004198093212
0.012779906495868925
0.0008387416842695003
-0.01525003838030527
-0.0017944768500793818
-0.0024825108040938196
0.004644100778388407
-0.008725813959820984
0.01363599764223194
0.0023356742270681167
0.01189071915599831
-0.0012368113256340473
0.007983090042869017
0.014043359907335408
0.0011853587514983413
-0.010582168908597436
-0.0021957313918375093
-0.0003620452857868141
0.0030560311250528976
-0.010411878683684907
0.0035792268344062928
0.012836210230351761
0.0014306190940653982
-0.01402442905784091
-0.0023514550969719068
-0.010969436967761525
-0.0009165577566578225
-0.0012112327291091227
0.0016685272184276193
0.01522604162519268
0.002705288531897447
-0.012361771302861584
0.0019517140050568545
0.0004600791269699766
0.0018148259722495874
-0.010853001083791055
0.0013293839411427288
0.015232578499168944
0.0010632823556146007
-0.0011253880677354257
0.0018827820217292238
-0.005853608882884651
0.002140986856777428
-0.0010325417373060987
0.00010018209302250773
0.011582962594814124
0.00200317712210734
-0.0009142902280447173
-0.00036220685082033363
-0.0007135572867404261
-0.0006599928223616311
0.011032760692052977
0.001986633386561442
0.0006697885556693377
-0.0001146379842393424
-0.0007059183498752434
0.001891446368339891
-0.0033278957562831884
0.0003144193200061317
0.009645284685563763
0.0017527210631589768
0.0019798754564760244
0.0006361073263129146
-0.00045420168161240605
0.0015023518120395023
-0.0011128099200351748
0.0009384393384526641
0.010234266619376445
0.0011966039562704468
-0.002038519670744087
0.0012328359656467482
-0.00011521372045662487
0.0008526603122242007
-0.001032445200526565
0.0014793837516814848
0.0003030677900737882
0.0004301372425960341
0.010416598646888302
0.0016681573625894842
0.0077931931718862885
-3.2954671646751396e-05
-3.635156088903046e-05
0.001859131468457578
0.000887202161847367
0.002323138624299376
0.0011758612330761955
-0.0006421612548660827
0.0016323640181056568
0.0016598866010821879
-0.008264661762216567
-0.0013285931481525051
0.005752628969067339
0.0021954318176084105
0.001998463179846385
-0.002860016950045823
0.0026827467375091147
0.0017318507873308373
0.0038283047897013692
0.0004005634076404364
0.004060579223908325
-0.0046222246191980594
0.001825876549230465
-0.00715744902677606
-0.0020548291665828094
-0.003023106962014143
-0.011272588185995854
-0.009581581577734753
0.0001456279663034905
-0.011487765276080353
-0.0010201493692182453
-0.012019400243581526
0.0022402476488279414
-0.010568719262965381
-6.82613898414078e-05
-0.007231343502390332
0.0034118736391171092
-0.0010939753267607928
0.003956487511204094
0.0015016021236740015
5.8163602134889616e-05
-0.013814657026557906
-0.0001425815629387421
0.0036286364172250347
0.006032261011479865
-0.005884381355318253
-0.0005510879538159572
-0.002622313812762041
-0.0015796029429417913
-0.00721686742310593
0.008054996822884112
0.006618331410130641
0.008543257588951627
-0.0011665978386503253
-0.001852864576501764
-0.00029169517188636773
0.0005449367192442173
-0.013759430124352436
-0.002176860880743481
0.010149588530499238
-0.0009498764433473107
-0.013143485698491714
-0.0012927866159923428
-0.001145498790286224
0.006440982787424347
-0.008580358135004297
0.011115655352074167
0.011282370424361423
0.013076221706317304
-0.009875715706113704
0.0009420422359180053
-0.0005233446954586874
-0.0018594535396140464
-0.009449672012510226
0.004959085032002165
0.010725786377828837
0.013515711264581
-0.012274935247654321
0.011718177507241878
-0.009465729994784745
0.007748877137169752
-0.0012727968709655636
0.0012723273084196676
0.011872895007510091
-0.0023230976774663843
-0.011118246821254976
0.0027760730253420835
-0.003699624878150708
0.0036253742310515006
-0.03605943746164543
0.0015019047530884736
0.012130516886390752
-0.002579739644078462
-0.0011934601328737007
-0.0011952411680820304
-0.005099329880841509
0.0017285540035974596
-0.0011090465926211386
0.002503087217108949
0.009049541077971802
0.0015501546833750492
-0.0010089163400886568
0.0018667110471336018
-0.0008804459971286076
0.000798429328754163
0.03785324947345345
0.00032785298639550364
0.0005757947023327493
0.0019334252982007693
-0.0008129580490976107
0.0021931951707824257
-0.004889609552162509
-0.0005005479372118296
-0.0016571897392046826
0.0020504908588498977
0.009084074598428646
-0.0011360499447913956
0.0014823540138612647
-0.001322086593084309
-0.0005933080635273055
0.0020413496469463156
-0.0013161441097241588
-0.00072618419410046
0.01418541216081192
0.0019438505574123752
-0.0014480883664863436
-0.00019981904110611458
-0.00028976144729256294
0.0018078176118733818
-0.0011717387667803823
0.00023106156386213495
8.12919452704995e-05
0.001562569098112003
0.008029791772381585
0.0006261262262668053
0.006540735734963692
0.0012559174755308415
-0.00019831818620385467
0.0010008853833881662
0.0006004119869332226
0.0009125675157168326
0.0010851152214917039
0.001318870091036663
0.001230274566376949
0.0004898081395312459
-0.007186146918872566
0.0015756769348850288
0.00545676391571549
2.683989504127675e-05
0.0017388771038146708
0.0018437265738688409
0.0022086195396521066
0.0023708222167401183
-0.001255807802753228
-0.0005808537469811557
0.003283950721080496
0.0017799996468009487
0.0017277860074998213
-0.0012689748433853869
-0.008681029146244704
0.002368078571526923
-0.009538247383479114
-0.002805602244402858
0.0005482126215162051
0.0019906463328175582
-0.0005959976655435469
0.0007048602983980878
0.009792244308652756
-0.004558777208063722
0.0014717286015410757
-0.007092089711543498
0.015496848194737687
-0.0027209570664374952
0.001790471493594472
-0.009505758133888252
-0.014848497579966475
-0.011387035519539275
-0.0036939361590764427
-0.011879603236008968
0.0022669138900378396
-0.010376343758715089
0.002244616363734559
-0.0069767773075853304
-0.0012894153666863084
0.001185027952501992
-0.00025942827290091635
-0.00415076450724292
0.0011771170827302834
-0.0016116294836769434
0.009221001962659415
-0.0011929686846285268
0.003903133155385361
0.0030521766176695247
0.00029864729837694574
-0.010960884655095463
0.0007395244139362854
0.0034260916419236154
0.005973640588253334
-0.005005021634887923
0.0002747731976815508
-0.002292662438446105
-0.001004076937446224
-0.00583382821457332
0.008023036991888692
0.005707957084669806
0.008474076165179234
-0.00125748290314383
-0.0014002006097402198
0.003273744911636011
0.0007395312721885132
-0.0072331625004306704
-0.001820253211563694
0.008290014891681022
-0.00019754773793741645
-0.010281588432043614
-0.0006213164095308087
0.0008278107276258738
0.006831173321129488
-0.006730789236804939
0.011024235955543379
0.00947712339139669
0.012943123727775237
-0.007604792483530122
0.00110051129966952
-0.0006963103733976263
-0.0016491779178673554
-0.007316359190006972
0.00564892822627518
0.00925545427210484
0.013309063058749659
-0.009457998786063087
0.01141881517307885
-0.008439019550103089
0.007360054046243198
-0.0013803895626422677
0.0014076708522927246
0.009950874572875674
-0.002252668928433589
-0.008530786667507924
0.0023528839916940837
0.0003744135397308054
0.004459628171241615
-0.009848967194950233
0.0016125936211759259
0.01019566999074912
-0.0027467034676388023
-0.0013060528510733286
-0.0015506646270026154
-0.004523749423115132
0.0018337953866624018
-0.0012437173460426699
0.0033438346885913727
0.007022602149216508
0.002263124831729687
-0.001159241393994349
0.0019537769704358176
-0.0010698713796551673
0.0013241920475329824
0.010483039338028997
0.00043815997212490247
0.00044374277222876873
0.0020107398730495325
-0.0009791652892515335
-0.0004904728878487585
0.0003780295184217652
0.0021185514070603878
0.007334543463219454
-0.0016323906374305663
0.00097527785437719
-0.0019230789940926705
-0.0007887777801682263
0.002114288789405696
0.002815273199861024
-0.0015005616355308468
0.00749225876808335
0.0020212903776972574
-0.0008480804724107063
-0.0010384191644303615
-0.0005105634105579813
0.0018879444359669823
-0.0013513569451365655
-0.0005899237013522869
-0.00018494742904213123
0.0016434530733935963
0.005839936095808191
-0.00013447730873491657
0.004901900055385133
0.001341778609792375
-0.000370901157090427
0.0003112271457952838
0.00028704363683844446
0.0009973813037480444
0.0009507813520059421
0.0007151299609801987
0.0008253366949082555
0.0005743352083359254
-0.006407520794728228
0.001067463675029547
0.003924666227379999
0.0001122883467371922
0.0008189630266842458
0.0014603454696908453
0.0016537963441618849
0.0020865293864152936
-0.006437945109192364
-0.0004936765844850034
0.0024956234718284593
0.0016453304389107285
0.001605334358406268
-0.001182346457078665
-0.0033825272894633996
0.0023649924280935253
-0.008441154629121529
-0.0027284649925530297
0.0002621231039505351
0.002204214457418859
-0.00010282979333012062
0.00109387868289979
0.003917661851199497
-0.004477773150833566
0.0031886996363715285
-0.006999286649153718
0.007175255104949672
-0.002265161629973177
0.0008513673992169284
-0.009388215271068784
-0.006862587870928849
-0.011228268328189196
-0.0022253143154971505
-0.01164436642778912
0.0023980316700928615
-0.010043668596946553
0.002122597407284406
-0.006554906852933672
-0.0013859582512483273
0.0026474966689371453
8.345352999772962e-05
-0.002176540737332378