# vtk DataFile Version 1.0
GRUMMP topologically 2D mesh
ASCII

DATASET UNSTRUCTURED_GRID
POINTS 4142 float
  0.9902132100051211  -0.0013897599745845   0.0000000000000000
  0.9878682672001325  -0.0017209544766007   0.0000000000000000
  0.9922830260938109  -0.0010965337451688   0.0000000000000000
  0.9852627687065505  -0.0020876945602550   0.0000000000000000
  0.9824126515147726  -0.0024873693035198   0.0000000000000000
  0.9941016532545700  -0.0008382294190312   0.0000000000000000
  0.9793229395886266  -0.0029189889321549   0.0000000000000000
  0.9759912936709813  -0.0033826574903297   0.0000000000000000
  0.9957253756688895  -0.0006072067599891   0.0000000000000000
  0.9724158418644283  -0.0038783672872607   0.0000000000000000
  0.9972114818934485  -0.0003956828894990   0.0000000000000000
  0.9685983419668763  -0.0044053177853816   0.0000000000000000
  0.9986172604849257  -0.0001958749290171   0.0000000000000000
  0.9645418982154840  -0.0049624143705746   0.0000000000000000
  0.9602493276520160  -0.0055486932126648   0.0000000000000000
  1.0000000000000000   0.0000000000000000   0.0000000000000000
  0.9557225436143375  -0.0061636003738353   0.0000000000000000
  0.9986172604763917   0.0001958749302285   0.0000000000000000
  0.0136778115501445  -0.0198442283865115   0.0000000000000000
  0.9509632892996972  -0.0068066585239019   0.0000000000000000
  0.0111799405480040  -0.0180409152078963   0.0000000000000000
  0.9972114818757430   0.0003956828920181   0.0000000000000000
  0.0164236219435115  -0.0216216850259729   0.0000000000000000
  0.9459737546847580  -0.0074771440326796   0.0000000000000000
  0.0194159763686392  -0.0233724637256901   0.0000000000000000
  0.0089312659290954  -0.0162123970812813   0.0000000000000000
  0.9957253756403164   0.0006072067640564   0.0000000000000000
  0.9353156997544615  -0.0088958032333210   0.0000000000000000
  0.0226532123065557  -0.0250954152174871   0.0000000000000000
  0.0261336316774566  -0.0267893559859237   0.0000000000000000
  0.0068429846519911  -0.0142695304151425   0.0000000000000000
  0.9237713702124288  -0.0104115615140689   0.0000000000000000
  0.0298554003449755  -0.0284531869488138   0.0000000000000000
  0.9941016532123735   0.0008382294250309   0.0000000000000000
  0.0050308200222286  -0.0123013782195995   0.0000000000000000
  0.0012596550434314  -0.0062543845982477   0.0000000000000000
  0.9113626015789812  -0.0120184565864932   0.0000000000000000
  0.0338165365583016  -0.0300859006297539   0.0000000000000000
  0.0005600587198625  -0.0041872521188657   0.0000000000000000
  0.0034956879705714  -0.0103096477045821   0.0000000000000000
  0.0380150486067802  -0.0316864834866382   0.0000000000000000
  0.0001400674572995  -0.0020989425108620   0.0000000000000000
  0.0424489169588349  -0.0332538061244847   0.0000000000000000
  0.8981160449036193  -0.0137076729882106   0.0000000000000000
  0.9922830260341767   0.0010965337536290   0.0000000000000000
  0.0022384105171692  -0.0082946477552229   0.0000000000000000
  0.0000000000000000  -0.0000000005380880   0.0000000000000000
  0.0471161050109934  -0.0347866680569130   0.0000000000000000
  0.8692172420003259  -0.0173025512123363   0.0000000000000000
  0.8840586048664243  -0.0154712341935952   0.0000000000000000
  0.8536242589802903  -0.0191927756559575   0.0000000000000000
  0.0520144653095357  -0.0362838744017245   0.0000000000000000
  0.9902132099234322   0.0013897599861408   0.0000000000000000
  0.0001400673054027   0.0020989413744649   0.0000000000000000
  0.0005600583994229   0.0041872509286527   0.0000000000000000
  0.0089312642537700   0.0162123956290166   0.0000000000000000
  0.0068429832427153   0.0142695290019493   0.0000000000000000
  0.0022384098100130   0.0082946464730838   0.0000000000000000
  0.0034956870455263   0.0103096463775504   0.0000000000000000
  0.0050308188630767   0.0123013768482443   0.0000000000000000
  0.0111799386902237   0.0180409137864515   0.0000000000000000
  0.8373107726191357  -0.0211334926288444   0.0000000000000000
  0.0624935355792051  -0.0391666954139108   0.0000000000000000
  0.9878682670932252   0.0017209544916756   0.0000000000000000
  0.0136778095139640   0.0198442269960848   0.0000000000000000
  0.8203090273240524  -0.0231167391866414   0.0000000000000000
  0.0738633143603066  -0.0418930499584099   0.0000000000000000
  0.8026551811301268  -0.0251343400368426   0.0000000000000000
  0.9852627685719384   0.0020876945791685   0.0000000000000000
  0.0861021386417074  -0.0444536409739349   0.0000000000000000
  0.7843840873894279  -0.0271778197795966   0.0000000000000000
  0.9824126513500548   0.0024873693265746   0.0000000000000000
  0.0991843265815398  -0.0468392532814141   0.0000000000000000
  0.0164236197329729   0.0216216836667636   0.0000000000000000
  0.7461418339277840  -0.0313078737465108   0.0000000000000000
  0.9793229393907722   0.0029189889597428   0.0000000000000000
  0.1130825286139299  -0.0490420520078216   0.0000000000000000
  0.7058944105034720  -0.0354399888107516   0.0000000000000000
  0.1277704618123611  -0.0510562827506626   0.0000000000000000
  0.1762568929815641  -0.0559042078350805   0.0000000000000000
  0.0194159739879911   0.0233724623981675   0.0000000000000000
  0.6639684116827792  -0.0395008026994765   0.0000000000000000
  0.1937838883744062  -0.0571083155282771   0.0000000000000000
  0.9759912934368556   0.0033826575228533   0.0000000000000000
  0.2119350336566717  -0.0581032139582273   0.0000000000000000
  0.1432165586985055  -0.0528747491799113   0.0000000000000000
  0.1593891568184451  -0.0544918670991958   0.0000000000000000
  0.0226532097601106   0.0250954139222151   0.0000000000000000
  0.6207078411914361  -0.0434191082996254   0.0000000000000000
  0.5764634620046084  -0.0471137377839725   0.0000000000000000
  0.9724158415910057   0.0038783673250912   0.0000000000000000
  0.2306739249637577  -0.0588890260835713   0.0000000000000000
  0.0261336289695199   0.0267893547234291   0.0000000000000000
  0.5315950381341085  -0.0505057454921963   0.0000000000000000
  0.4864703588817339  -0.0535094604401647   0.0000000000000000
  0.4414549182767121  -0.0560390634426787   0.0000000000000000
  0.9685983416513994   0.0044053178288238   0.0000000000000000
  0.2697570606452168  -0.0598365819607799   0.0000000000000000
  0.3969170552729402  -0.0580119076690758   0.0000000000000000
  0.0298553974799863   0.0284531857194991   0.0000000000000000
  0.9645418978552561   0.0049624144199126   0.0000000000000000
  0.3107174127482247  -0.0599745523566999   0.0000000000000000
  0.3532197168655907  -0.0593474025151865   0.0000000000000000
  0.9602493272443249   0.0055486932681955   0.0000000000000000
  0.0338165335406938   0.0300858994339835   0.0000000000000000
  0.0380150454409591   0.0316864823247920   0.0000000000000000
  0.9557225431564565   0.0061636004358678   0.0000000000000000
  0.0424489136491938   0.0332538049970267   0.0000000000000000
  0.0471161015618897   0.0347866669642923   0.0000000000000000
  0.9509632887889385   0.0068066585927330   0.0000000000000000
  0.9459737541185675   0.0074771441085412   0.0000000000000000
  0.0520144617255517   0.0362838733443521   0.0000000000000000
  0.9353156990700551   0.0088958033238094   0.0000000000000000
  0.0624935317401540   0.0391666944281135   0.0000000000000000
  0.0738633102849253   0.0418930490455120   0.0000000000000000
  0.9237713694002159   0.0104115616199952   0.0000000000000000
  0.0861021343485112   0.0444536401350998   0.0000000000000000
  0.9113626006299211   0.0120184567085017   0.0000000000000000
  0.0991843220904188   0.0468392525175462   0.0000000000000000
  0.8981160438094651   0.0137076731266115   0.0000000000000000
  0.1130825239435962   0.0490420513187447   0.0000000000000000
  0.8840586036192291   0.0154712343488011   0.0000000000000000
  0.1277704569818227   0.0510562821360933   0.0000000000000000
  0.8692172405930260   0.0173025513845012   0.0000000000000000
  0.1432165537277111   0.0528747486397878   0.0000000000000000
  0.8536242574066383   0.0191927758449732   0.0000000000000000
  0.1593891517258480   0.0544918666322352   0.0000000000000000
  0.8373107708732270   0.0211334928345504   0.0000000000000000
  0.1762568877862003   0.0559042074398506   0.0000000000000000
  0.8203090254010921   0.0231167394087162   0.0000000000000000
  0.1937838830953411   0.0571083152030304   0.0000000000000000
  0.2119350283118140   0.0581032137003017   0.0000000000000000
  0.8026551790260408   0.0251343402747870   0.0000000000000000
  0.2306739195716207   0.0588890258904683   0.0000000000000000
  0.7843840851007032   0.0271778200327233   0.0000000000000000
  0.2697570552113356   0.0598365818878674   0.0000000000000000
  0.7461418312636445   0.0313078740273454   0.0000000000000000
  0.3107174073396524   0.0599745523895525   0.0000000000000000
  0.3532197115457904   0.0593474026374948   0.0000000000000000
  0.7058944074605978   0.0354399891145804   0.0000000000000000
  0.6639684082655058   0.0395008030201497   0.0000000000000000
  0.3969170500997217   0.0580119078642495   0.0000000000000000
  0.6207078374111498   0.0434191086291270   0.0000000000000000
  0.5764634578798972   0.0471137381129498   0.0000000000000000
  0.5315950336908907   0.0505057458089039   0.0000000000000000
  0.4864703541532008   0.0535094607315534   0.0000000000000000
  0.4414549133024901   0.0560390636939180   0.0000000000000000
  0.9901595609719056  -0.0023783411927147   0.0000000000000000
  0.0326649145266362  -0.0334200843455863   0.0000000000000000
  0.9878329678703356  -0.0027145673674890   0.0000000000000000
  0.0733998606732272  -0.0440344159407381   0.0000000000000000
  0.9922372924577029  -0.0020726951087579   0.0000000000000000
  0.8846838814295012  -0.0208009306521702   0.0000000000000000
  0.9852539181750185  -0.0030832573491977   0.0000000000000000
  0.8205556230767344  -0.0253024477924150   0.0000000000000000
  0.9824277530968584  -0.0034836508822686   0.0000000000000000
 -0.0022154120548041  -0.0049277430541563   0.0000000000000000
[...]
POINT_DATA 4142
SCALARS continuity float
LOOKUP_TABLE default
0.006770437825062913
0.006334424366916068
0.0069122647978325765
0.006156056709145697
0.005942284052588026
0.008534143036289838
0.005807486286510637
0.005737625928538127
0.007490906524277234
0.005735768377340979
0.009804320089310795
0.005699808988687206
-0.018922364986214125
0.005816473973331664
0.005821513597238224
-0.013882782799782823
0.0058405516539391305
-0.01750462545434122
-0.006307552015493743
0.0060513805059389915
-0.007744896146813431
0.008088607021959763
-0.005113547454723979
0.006138956330757377
-0.004041041161783427
-0.008498430620103775
-0.002874239850344681
0.006417102877988497
-0.0030842055511012007
-0.002216946566224148
-0.010252990352664504
0.00672566612401031
-0.001484318755243226
0.0016365931880182468
-0.011570314464673286
-0.016705570883717574
0.007265664075108807
-0.000826209639707335
-0.018941706230420154
-0.013058575482994439
-0.0002496881762394041
-0.021173213329078937
0.0002484497057056497
0.0077492884882954345
0.0016408415553302506
-0.014758974114944048
-0.023694777443185214
0.0010883996824042896
0.008128396440459344
0.007834980819846297
0.007922498890953792
0.0008274023307403514
0.00215456379305714
-0.02678114882818749
-0.02017190455021729
-0.010442589220412992
-0.012857133055935513
-0.024142843590531145
-0.017119760882508356
-0.01523412244476735
-0.008436048201383974
0.008173876479132114
0.002620460194270347
0.0023429527209881886
-0.006570027471789445
0.007937650544638457
0.00219761092414958
0.008296091703095093
0.00254069108400016
0.002408991782303111
0.007269787691543744
0.0026388246796619744
0.0025604230407892327
-0.00508005010127586
0.007267648502348556
0.0026302153706606072
0.002618953622439968
0.006041084617318605
0.0025342917828967537
0.0015163856970052114
-0.003867562895432699
0.005048031705475038
0.0009733026125022819
0.0025265942155311156
0.0008730994414063611
0.0023048074696186234
0.0019699973647640577
-0.002882143711816
0.003940297070853728
0.0026748730050521804
0.002410819724446756
-0.00030609907324957025
-0.0020880065960480814
0.0013836731346160642
0.00017031637989529198
-0.0012542281072739805
0.0023791314272077115
-0.000840834276430581
-0.0030505639127554485
-0.001495864306632549
0.0022137213918183756
-0.003932748671992271
-0.004399354090938773
0.0022093669750346094
-0.0010439574527250901
-0.0007817779981269001
0.002095640520043075
-0.0006570489239163121
-0.00020318826319261896
0.0019518539091294782
0.002393928323886419
-0.0011849272467434307
0.002344484535301969
0.0002163973673243181
-0.00024683327167473556
0.002541060909848288
-2.784069290632683e-05
0.002874056197464786
4.43076697519737e-05
0.0028958071979435364
1.3630612696174073e-05
0.003298649601265661
-3.460475909325281e-05
0.002946945528271127
-8.468953690501071e-05
0.0031745638735945544
-0.00013129785229643514
0.002504191983982854
-0.00027838251689561185
0.0025969642844397805
-0.00048754770810700425
-6.782474230099369e-06
0.0022370868559718152
-0.0008488675240862936
0.0025095991382427657
0.0005011299929637135
0.0014563415054110183
-0.0007193008639985476
-0.0004747465112215172
0.0025085954143096428
0.0025291324442168004
0.00023888930939449873
0.0028043951281919387
0.002970141446020967
0.0027457447728113722
0.0021034063384156036
0.0012076976453730633
0.006963281040692932
0.0017123555172930953
0.006396366552636541
0.0028816155361406125
0.006784015507797715
0.008107311154751577
0.006224182065926036
0.007982648356115084
0.005989145158686986
-0.01168972160111691
0.00945179700595664
-0.004985815544982581
0.005849903645117197
-0.007853655928745323
0.005768608951631696
0.002378967935955813
0.006656585979816609
-0.006339207925108058
0.005764821514113954
0.003536703950476557
0.013195859428712719
0.008412409841942756
0.005723496319143293
0.00822111586895601
0.028012878019761808
0.001924045088652307
0.00583236893566485
-0.006568951333765608
0.005833964916678041
0.0018686512938857229
0.02212094768423686
0.01787545750451702
0.00917164770537126
-0.0009149056351643307
-0.0032804884814328994
-0.0014633787528197518
0.010702662040206517
0.005848681341858076
-0.012055734689754127
0.00948673368383444
-0.013519083413761554
-0.002617028388315114
-0.013852842968202267
0.006053551950026585
0.0036650494396517834
-0.00369999033749438
-0.01615251850956831
0.005958144941115894
0.0021065005523502626
-0.0017656995071542736
-0.010062831937500643
0.006156007999314638
-0.0031389692667290114
-0.0010735927327763521
-0.008215381575649515
-0.004521721663162933
0.007869135491795822
-0.0008005802105869162
-0.01670987851776147
0.006432635083398838
-0.012141114941771891
-0.00047261862967582044
-0.02031472811504964
2.5619873668243003e-05
0.0016404670184686097
-0.005916866646959435
0.002272335210028397
0.006748576040052328
-0.004778314892320789
0.000457401686653746
0.0020458169628721334
0.002730831033677195
-0.007976529286750376
-0.007437370178298424
0.00797297031643131
-0.013687635477503412
-0.006321439728654784
0.007287465028640877
0.007878093506957451
0.0008304953142510812
-0.015221500686346904
-0.01619019908184937
0.008174047217240637
-0.009252929644289249
-0.0038563045633146103
0.00115155815964834
0.0024051394422863674
-0.018653602471039074
0.002746105235752413
0.0014173521677356472
-0.01870894009104533
0.007776472080354217
0.001575917586736419
0.0019014772343089494
-0.010745264945009336
-0.011333517081400766
0.008256072929254215
-0.02107882188517858
0.0012645321178298028
0.002027725396119563
-0.009595908883234338
0.008153175949484774
0.007792683225783735
0.007862503651841504
0.007958078294529743
0.007945636294978119
0.0017238040845495173
0.0017654971759777044
0.008020707061965872
0.00239050048069211
-0.01674754917486169
-0.02385306002247224
0.008052648155953347
-0.019976279020900975
0.0014564205552960738
-0.010687323559601915
-0.0025182973807585
-0.01305510088855173
-0.008938339403800233
-0.020553499986547
0.0023444541623731862
-0.01705346434514314
-0.014764297235980052
-0.01524510005508745
0.0033886310028720806
-0.008463485554003267
0.0010822304651827079
0.008196525742447435
0.00230081614566032
0.0032472156635782686
0.007309090281339987
0.0025127838484653147
0.005818058327026877
-0.006409736669813111
-0.012721351936645274
0.007957540903467881
-0.016261687389211396
0.002669068952307453
-0.007278049130821076
0.00830786705350405
-0.01087990035788231
0.002679273423985787
0.0024664710228666266
0.0027598697027553143
-0.013456572983838625
0.007300256489204444
0.0006534802040937885
0.002754292145650855
0.00209656948063654
0.0028360510458415003
0.006777068676307863
-0.004665039080748056
-0.005292215960873403
0.007279924254523073
-0.005880927866830576
0.0027283383600825214
0.0035204635295905287
0.002839493601584319
0.00015472903042586256
0.006052789453706976
-0.007158129009403481
0.002721735688310859
-0.00042014941256189104
0.0016523532332997804
0.008689646709549552
-0.0032351429045967377
0.006468136165865477
0.005055344345836682
-0.012651702368184173
0.001104816727795528
-0.005909994231408397
0.002612414064801541
-0.0049060874080153905
0.0010116561717444011
-0.004554207232830222
0.0024678965312003756
-0.010987891358263748
0.0021178762053843145
-0.0010670163004257516
-0.0020576151244564
-0.006442789435499752
0.00394740424787469
0.0061995226623700545
0.002678333027850115
-0.009131959690225556
0.0024858460871425396
-0.00179682980713957
-0.00021849119042787236
-0.009404456426698554
-0.0011537044593988755
0.008380015163352461
0.0013892077412417966
-0.003725367056411859
0.0001824398915995208
-0.003697595283823775
-0.0012313669073083287
0.008382193313376666
0.002444591316079127
0.006099700981667532
-0.0007409510560209972
0.008308300698204554
-0.003017498805614489
-0.002643432760769076
-0.0004611395495025674
0.003547916564190746
0.0022698893210234693
-0.042985495692182955
-0.003858958758380132
0.0037485008032717136
-0.004345820192330383
0.005891030032388035
0.0022586986547556425
0.008751018198186964
3.201335437119503e-05
0.005868651760426247
0.0003272214435169322
0.0023966096395479164
0.002143999210266406
0.005862087074348796
0.0004077909740586368
0.007533287366052661
0.0006692193432051808
-0.0023273032854544203
0.002002382849929305
-0.002374820567232101
0.002447872149187165
0.005737004547814931
0.0001369076491922681
0.00847802655632775
0.0024094893331384265
0.01309725406839812
0.0011548307587688931
0.00806955653563382
0.0006709789470337346
0.005768541245181116
0.0026166734631510023
-0.007833723649538712
0.0008235640591762938
0.005896158116585583
0.002950792458429001
0.003073218453341413
0.0008319735360254652
0.005757365258190869
0.0029744743956995486
0.010893751456857868
0.0007428798200415205
0.005820351584427501
0.0033774862814636587
0.0084311673844101
0.0006404498031743769
0.00869069261245566
0.003020291541947013
-0.0036142977738054813
0.0005390585514195075
0.005938905262866659
0.0032483638905224338
0.002586512485688307
0.00044691311627893067
0.006152419435350723
0.0025768918327366335
0.004985431872797568
0.00025312825004893835
0.006632218093393735
0.002668129213978259
0.0031167171002552513
4.93135724164238e-07
0.006297325945910335
0.0004155481913149731
0.002288317471913774
0.0023202305469171786
0.006765541744467519
-0.00038798563604195053
0.00741799295677567
0.002563617685251395
0.007594499547374713
0.0008329641555352068
0.006489865370868658
0.0015346115802110313
-0.00431965394280957
-0.0004529920897123332
0.002659744840743191
-0.00026150021686796436
-0.00047837638764859636
0.002581456597787664
0.0034624128402918047
0.0025985208438909853
0.0009526347180938116
0.0004093409313882592
0.003178157960474497
0.0028852451495984537
0.007852326271180309
0.0030559490568439506
0.0023554520642446856
0.00284103314618037
0.0030683888328378963
0.0022165838980444702
-0.001286524322199815
0.0013421216481604604
0.0014041340211480352
0.00833777122072505
0.008300113465839422
0.0025917699241847073
0.007380549181778401
0.002943384542052611
0.008208727176507353
0.007327874561678941
-0.009789691907545887
0.0026711587725593267
-0.000666836216871688
0.0030023236389031325
-0.004841171477828957
-0.003676002162173724
0.0029699186204688007
0.007313909935277719
0.0022205248195641403
0.0026657990846684233
0.005609574963064154
0.0030015279176326304
0.0015241136903071635
0.006089232058074683
0.0023289315147362534
0.002882467263804597
0.006852629944577687
0.0018280718309551917
0.007210971646443627
-0.002528258209109347
-0.003545840737931122
0.005089683576942206
-0.012836327369158632
0.001280562611615985
0.001308881012087024
0.0025685532299444384
-0.008619016773270916
0.0011897227167590638
0.0009966797421901694
0.00263015962437676
-0.010828598339441293
0.002284786682799418
0.006547383879470516
-0.001568940567280055
0.0025567348962340303
0.003974810298098033
-0.0009943887810166887
0.0027052689021160896
-0.003361168209674167
0.0024666272802361844
-0.0023226655621742774
-5.7404094359233746e-05
0.00553785689448515
-0.0007597247040220253
0.0006244768467022809
0.001422411695675178
0.007579285754259009
0.00022525928480600574
0.00628515840098043
-0.0011711005922527
-0.005161725900286969
0.0024535717150977105
0.00011099716819220739
-0.0006017920478524383
0.009123284415786626
-0.0029404871411239895
0.0034885902597119717
-0.00013475420386669924
-0.009930725925213397
0.0022892439159606813
-0.001497606797182569
-0.0037597121132026683
-0.003601331828903896
-0.004257037730338045
0.006185369651536449
0.002300185928045345
-0.008610917612896693
0.00036562983740216255
-0.0005835004891168375
0.000656305360234431
-0.0053429334982566514
0.0021937513365223216
-0.003121559634621152
0.0007307126355588296
-0.006979458781919112
0.0010204416825147192
0.00596988592775211
0.0020503137301829196
-0.007440602733210488
0.0024880164500133994
0.005943412581774573
0.00042729807757085604
-0.0017300403615020897
0.002431384771961931
0.005934025162111837
0.001426774471550403
0.008817981893870919
0.0008972163453035068
0.0021832229713063403
0.0026304020805231775
0.008470477181407967
0.0010369845861829573
0.00579538637010679
0.0029636158985183354
0.0052442681934379825
0.0010494037691506156
0.009303643281049772
0.0029847925022904154
0.0039394346873375735
0.0009611186663436592
0.005822128910237387
0.0033874716013161483
0.00940699061310153
0.0008547506305610651
0.005268294531227194
0.0030377189429616367
0.0023911163805695815
0.0007502212506084653
0.0057959184230324924
0.0032697714464338746
0.007818710357067491
0.0006573025467397498
0.005839613125613958
0.0026037162565415673
-0.0002852449141270524
0.0004711196316326549
0.007754336377956219
0.0026995393944201957
0.008891310138031083
0.00022253580179170638
0.005943141114863248
0.0006484982714137377
0.00822521269968723
0.002355537468017929
0.006145764880493921
-0.00019459624266866268
-0.006084034187074304
0.002597371697365437
0.006427427837906915
0.0009923239439336038
0.003124867200436483
0.0015720677034363798
0.006257337511281133
-0.0003422345350125233
0.00333544129639805
-0.0001657886316707561
0.00662813382553887
0.002632034743709153
0.008592099841868294
0.002651970444936596
0.004650838292945144
0.0004940616660921597
-0.0025585325413168087
0.002937127946932952
0.0058141676527112066
0.0031101821621127707
0.002597901460578771
0.002900863221734169
0.005996984244510122
0.0022833695011313638
0.007109459340903047
0.0014207456880704222
0.009798213495552507
0.007004803949903674
0.0074120001101948265
0.006460582352892105
0.002654048303734836
-0.002448003553494291
0.0031875724189303818
-0.010173489487478786
0.0061813868892948085
0.0032474732573883514
0.00308225046245185
-0.007089818027895271
0.00207446670073495
0.00283494363819181
-0.0004889081921702855
-0.00899123659458286
0.005173246213200174
0.006709653378234584
0.0015449035211275374
0.002725403324381943
0.0025668868601232105
-0.0019421040177973353
0.0014706677079112406
-0.0024081063868332804
0.00284095222876005
-0.0013358328476136719
0.0025121272978753497
0.0058682766412650935
0.00013091726108510181
0.0022479084861740557
0.004052889620437925
-0.00406029281515242
0.0027815640712299046
0.001507442523707683
0.002479561326184924
0.00972347670895185
0.00021549342007510044
0.0032651971847829676
0.0005665055904885348
-0.008143792622778112
0.0015089863314616582
-0.0003791193553957378
0.0003322697503065394
-0.0028543936062584764
-0.0010393058276207492
0.006359189983305227
0.002485275979438676
-0.007064384339495296
-0.000363160977404008
0.0006137258014490742
-0.0027913247609134976
0.0004879776687482574
0.0008895611491375404
-0.012655291308690812
0.00233125476406238
-0.005661640398426038
-0.003580476465677406
0.006131547487982771
-0.004098486289421981
-0.006141242375917638
0.002358286660033388
0.006106122117338869
0.001126805634531049
-0.0009284210708644351
0.0012508220486346438
0.006094441098793629
0.002250692467931352
0.009434520877250998
0.0012507213079096966
0.004769438075106764
0.001452821477382027
0.008742242463697493
0.002107225209265748
0.005932127398033445
0.002557512250368423
0.0019698484023274268
0.0008808888883341234
0.005173854902152302
0.0024885215170934918
0.009584624075350098
0.0017705487142611366
0.0052844716288962135
0.001304206324922737
0.0059563831398535575
0.002685854388392278
0.01019751870711756
0.0014323768000666529
0.006221816359446225
0.003024618800039809
0.0024588404193667847
0.001442485510568925
0.005909023386241354
0.0030482341728954514
0.00828720227630092
0.0013545873782645256
0.005925503338592158
0.003464351964713312
0.00047900907601411473
0.0012398705835020508
0.007642974977014573
0.00311601002400794
0.009451440611450326
0.0011226424467564548
0.005998962262102983
0.003358494858137242
0.008491769672957648
0.0010221405679119646
0.006166994465809458
0.0026979388507546893
-0.00501717012421858
0.0008439546656092188
0.006427417573843061
0.002802921379956887
0.003939138529950729
0.0006056725903760622
0.006232411741813821
0.0010364860862318147
0.010673096868760761
0.002461978248381918
0.006546250635556071
0.00016478976993176514
0.008862632686292584
0.0027153176281679414
-0.0010994092804912244
0.0012827148611074266
-0.0019342871329291226
0.0016928983492872631
0.0016766179136567514
-0.00011554674991565757
0.002659902947296691
3.8097607805581864e-05
0.003342209952936776
0.0027633714595030516
0.007167666761596373
0.002795284416921006
0.005609040033054741
0.0006928360107881605
0.0032979703741820663
0.0030843685532855954
-0.0015300860883605853
0.003266367345728734
0.002119292312514455
0.0030648918212432203
0.002677603119069569
0.002454257799086287
0.007841537498182838
0.0016055616828581924
0.006450310999403923
0.00545206650433056
0.0026720826885123024
0.004793307946953052
0.0031123661596730136
0.0024746920129491016
0.0009041989821715778
0.007294796043197191
0.0075771624757195065
0.004735874703195468
0.0026779639286481755
-0.0016114309412684417
0.003157122813420955
-0.008381427824606678
0.0063364974889097035
0.004184168087682338
0.0031028775720078057
-0.005898765690775111
0.002296602427145025
0.003466965392151576
0.0018333256256733066
-0.007794005821629302
0.00531255199654698
0.007011003195333983
0.0018264177725134678
0.0020008404788778014
0.0026000112035972204
-0.00010931684645704284
0.0018026960157551729
-0.0019785936083012456
0.002929966193344254
-0.0006877106648844617
0.002668673717703067
0.004696291122800721
0.002480559881763387
0.002659944173452735
0.0041815408445584614
-0.003401701761721618
0.0029183874462878983
0.001833140412052623
0.00252268313950264
0.010410228392714979
0.0005803627429208103
0.0014006349653283557
0.002924185892404099
-0.007011494497544172
0.0016641748650077317
0.00011748218617098089
0.0005235123494973989
-0.002256221509093717
-0.0008078842631827549
0.006684180517417422
0.002559757965657468
-0.006018340903957558
-4.662632239876189e-06
0.000982588945396443
-0.0025356154831745474
-0.004396971065862499
0.0031216213201252316
-0.003355928240380335
0.002410443596931611
-0.004809879735339839
-0.0032893190849760555
0.006431772135597963
-0.003841721309211611
-0.005120298361366704
0.002468594533626205
0.0064128662442362715
0.0031267220982611867
-0.000637476878974341
0.0029526157648076057
0.006408872111363896
0.002363761294819114
0.01014868710802997
0.0026426619764891583
0.00237060831377195
0.002484517979298862
0.009155753235239808
0.002215743928713643
0.00621218801493096
0.0017421017449720493
0.003979835486049774
0.0025973382486040187
0.006667028200211574
0.002156162974435288
0.007523549953784185
0.0016675398297285634
0.006240271842597162
0.00279607121440759
0.002075725697962912
0.001715579325216396
0.005519680795787144
0.0031394064699138643
0.002549520053755971
0.0017052424105096198
0.006155538214330911
0.0031681951980506266
0.008982806058360316
0.0016315324160100211
0.006140154057246931
0.0035959862389448117
0.0005834299176940222
0.0015342119115380089
0.00674887963178092
0.003253638574666911
0.010067689823721299
0.001434786098504951
0.006167256365501951
0.00351266120717484
0.008884689952722373
0.0013585651926685041
0.006281860424074442
0.0028615050038060903
-0.004120768118340764
0.0012128353031221671
0.006290945381002309
0.0029817938856482144
0.00636484897906288
0.0010133844907444117
0.006295231458938523
0.001451780958401651
-0.0019096240404636278
0.002645387947674734
0.006456940221817542
0.0005946255756797838
0.009262332999896879
0.0029139835165379498
0.001956173571072342
0.0016604257661233853
-0.0014758786630660588
0.0019039808084454423
0.003530139129838022
0.00021520430193947872
0.0027947165609948526
0.0003489361834313829
0.004030648882573834
0.002999435805216936
0.005560181415173707
0.0030426905144242465
0.004915461647804755
0.0009952206751224519
0.005280731003237961
0.0033407794812391374
0.0010058429086150316
0.0035271614142854423
0.0021122307102115112
0.00333156326231846
0.0029001973497451393
0.002731122391315585
0.008219274320331293
0.0018944487020017722
0.00676105982992078
0.003921151432678686
0.002741770375985556
0.00445984936636404
0.0029109192236666088
0.0025622687106838958
0.0017060821167305291
0.0077789610998924025
0.007831667640346051
-0.0028948336548205427
0.0027669256294171034
-0.0011600895334097482
0.0027197651915950556
-0.006894032204516225
0.006576324249202098
0.003734782635298144
0.002594548965321065
-0.004917766895186717
0.0021042404504100767