# vtk DataFile Version 1.0
GRUMMP topologically 2D mesh
ASCII

DATASET UNSTRUCTURED_GRID
POINTS 4142 float
  0.9902132100051211  -0.0013897599745845   0.0000000000000000
  0.9878682672001325  -0.0017209544766007   0.0000000000000000
  0.9922830260938109  -0.0010965337451688   0.0000000000000000
  0.9852627687065505  -0.0020876945602550   0.0000000000000000
  0.9824126515147726  -0.0024873693035198   0.0000000000000000
  0.9941016532545700  -0.0008382294190312   0.0000000000000000
  0.9793229395886266  -0.0029189889321549   0.0000000000000000
  0.9759912936709813  -0.0033826574903297   0.0000000000000000
  0.9957253756688895  -0.0006072067599891   0.0000000000000000
  0.9724158418644283  -0.0038783672872607   0.0000000000000000
  0.9972114818934485  -0.0003956828894990   0.0000000000000000
  0.9685983419668763  -0.0044053177853816   0.0000000000000000
  0.9986172604849257  -0.0001958749290171   0.0000000000000000
  0.9645418982154840  -0.0049624143705746   0.0000000000000000
  0.9602493276520160  -0.0055486932126648   0.0000000000000000
  1.0000000000000000   0.0000000000000000   0.0000000000000000
  0.9557225436143375  -0.0061636003738353   0.0000000000000000
  0.9986172604763917   0.0001958749302285   0.0000000000000000
  0.0136778115501445  -0.0198442283865115   0.0000000000000000
  0.9509632892996972  -0.0068066585239019   0.0000000000000000
  0.0111799405480040  -0.0180409152078963   0.0000000000000000
  0.9972114818757430   0.0003956828920181   0.0000000000000000
  0.0164236219435115  -0.0216216850259729   0.0000000000000000
  0.9459737546847580  -0.0074771440326796   0.0000000000000000
  0.0194159763686392  -0.0233724637256901   0.0000000000000000
  0.0089312659290954  -0.0162123970812813   0.0000000000000000
  0.9957253756403164   0.0006072067640564   0.0000000000000000
  0.9353156997544615  -0.0088958032333210   0.0000000000000000
  0.0226532123065557  -0.0250954152174871   0.0000000000000000
  0.0261336316774566  -0.0267893559859237   0.0000000000000000
  0.0068429846519911  -0.0142695304151425   0.0000000000000000
  0.9237713702124288  -0.0104115615140689   0.0000000000000000
  0.0298554003449755  -0.0284531869488138   0.0000000000000000
  0.9941016532123735   0.0008382294250309   0.0000000000000000
  0.0050308200222286  -0.0123013782195995   0.0000000000000000
  0.0012596550434314  -0.0062543845982477   0.0000000000000000
  0.9113626015789812  -0.0120184565864932   0.0000000000000000
  0.0338165365583016  -0.0300859006297539   0.0000000000000000
  0.0005600587198625  -0.0041872521188657   0.0000000000000000
  0.0034956879705714  -0.0103096477045821   0.0000000000000000
  0.0380150486067802  -0.0316864834866382   0.0000000000000000
  0.0001400674572995  -0.0020989425108620   0.0000000000000000
  0.0424489169588349  -0.0332538061244847   0.0000000000000000
  0.8981160449036193  -0.0137076729882106   0.0000000000000000
  0.9922830260341767   0.0010965337536290   0.0000000000000000
  0.0022384105171692  -0.0082946477552229   0.0000000000000000
  0.0000000000000000  -0.0000000005380880   0.0000000000000000
  0.0471161050109934  -0.0347866680569130   0.0000000000000000
  0.8692172420003259  -0.0173025512123363   0.0000000000000000
  0.8840586048664243  -0.0154712341935952   0.0000000000000000
  0.8536242589802903  -0.0191927756559575   0.0000000000000000
  0.0520144653095357  -0.0362838744017245   0.0000000000000000
  0.9902132099234322   0.0013897599861408   0.0000000000000000
  0.0001400673054027   0.0020989413744649   0.0000000000000000
  0.0005600583994229   0.0041872509286527   0.0000000000000000
  0.0089312642537700   0.0162123956290166   0.0000000000000000
  0.0068429832427153   0.0142695290019493   0.0000000000000000
  0.0022384098100130   0.0082946464730838   0.0000000000000000
  0.0034956870455263   0.0103096463775504   0.0000000000000000
  0.0050308188630767   0.0123013768482443   0.0000000000000000
  0.0111799386902237   0.0180409137864515   0.0000000000000000
  0.8373107726191357  -0.0211334926288444   0.0000000000000000
  0.0624935355792051  -0.0391666954139108   0.0000000000000000
  0.9878682670932252   0.0017209544916756   0.0000000000000000
  0.0136778095139640   0.0198442269960848   0.0000000000000000
  0.8203090273240524  -0.0231167391866414   0.0000000000000000
  0.0738633143603066  -0.0418930499584099   0.0000000000000000
  0.8026551811301268  -0.0251343400368426   0.0000000000000000
  0.9852627685719384   0.0020876945791685   0.0000000000000000
  0.0861021386417074  -0.0444536409739349   0.0000000000000000
  0.7843840873894279  -0.0271778197795966   0.0000000000000000
  0.9824126513500548   0.0024873693265746   0.0000000000000000
  0.0991843265815398  -0.0468392532814141   0.0000000000000000
  0.0164236197329729   0.0216216836667636   0.0000000000000000
  0.7461418339277840  -0.0313078737465108   0.0000000000000000
  0.9793229393907722   0.0029189889597428   0.0000000000000000
  0.1130825286139299  -0.0490420520078216   0.0000000000000000
  0.7058944105034720  -0.0354399888107516   0.0000000000000000
  0.1277704618123611  -0.0510562827506626   0.0000000000000000
  0.1762568929815641  -0.0559042078350805   0.0000000000000000
  0.0194159739879911   0.0233724623981675   0.0000000000000000
  0.6639684116827792  -0.0395008026994765   0.0000000000000000
  0.1937838883744062  -0.0571083155282771   0.0000000000000000
  0.9759912934368556   0.0033826575228533   0.0000000000000000
  0.2119350336566717  -0.0581032139582273   0.0000000000000000
  0.1432165586985055  -0.0528747491799113   0.0000000000000000
  0.1593891568184451  -0.0544918670991958   0.0000000000000000
  0.0226532097601106   0.0250954139222151   0.0000000000000000
  0.6207078411914361  -0.0434191082996254   0.0000000000000000
  0.5764634620046084  -0.0471137377839725   0.0000000000000000
  0.9724158415910057   0.0038783673250912   0.0000000000000000
  0.2306739249637577  -0.0588890260835713   0.0000000000000000
  0.0261336289695199   0.0267893547234291   0.0000000000000000
  0.5315950381341085  -0.0505057454921963   0.0000000000000000
  0.4864703588817339  -0.0535094604401647   0.0000000000000000
  0.4414549182767121  -0.0560390634426787   0.0000000000000000
  0.9685983416513994   0.0044053178288238   0.0000000000000000
  0.2697570606452168  -0.0598365819607799   0.0000000000000000
  0.3969170552729402  -0.0580119076690758   0.0000000000000000
  0.0298553974799863   0.0284531857194991   0.0000000000000000
  0.9645418978552561   0.0049624144199126   0.0000000000000000
  0.3107174127482247  -0.0599745523566999   0.0000000000000000
  0.3532197168655907  -0.0593474025151865   0.0000000000000000
  0.9602493272443249   0.0055486932681955   0.0000000000000000
  0.0338165335406938   0.0300858994339835   0.0000000000000000
  0.0380150454409591   0.0316864823247920   0.0000000000000000
  0.9557225431564565   0.0061636004358678   0.0000000000000000
  0.0424489136491938   0.0332538049970267   0.0000000000000000
  0.0471161015618897   0.0347866669642923   0.0000000000000000
  0.9509632887889385   0.0068066585927330   0.0000000000000000
  0.9459737541185675   0.0074771441085412   0.0000000000000000
  0.0520144617255517   0.0362838733443521   0.0000000000000000
  0.9353156990700551   0.0088958033238094   0.0000000000000000
  0.0624935317401540   0.0391666944281135   0.0000000000000000
  0.0738633102849253   0.0418930490455120   0.0000000000000000
  0.9237713694002159   0.0104115616199952   0.0000000000000000
  0.0861021343485112   0.0444536401350998   0.0000000000000000
  0.9113626006299211   0.0120184567085017   0.0000000000000000
  0.0991843220904188   0.0468392525175462   0.0000000000000000
  0.8981160438094651   0.0137076731266115   0.0000000000000000
  0.1130825239435962   0.0490420513187447   0.0000000000000000
  0.8840586036192291   0.0154712343488011   0.0000000000000000
  0.1277704569818227   0.0510562821360933   0.0000000000000000
  0.8692172405930260   0.0173025513845012   0.0000000000000000
  0.1432165537277111   0.0528747486397878   0.0000000000000000
  0.8536242574066383   0.0191927758449732   0.0000000000000000
  0.1593891517258480   0.0544918666322352   0.0000000000000000
  0.8373107708732270   0.0211334928345504   0.0000000000000000
  0.1762568877862003   0.0559042074398506   0.0000000000000000
  0.8203090254010921   0.0231167394087162   0.0000000000000000
  0.1937838830953411   0.0571083152030304   0.0000000000000000
  0.2119350283118140   0.0581032137003017   0.0000000000000000
  0.8026551790260408   0.0251343402747870   0.0000000000000000
  0.2306739195716207   0.0588890258904683   0.0000000000000000
  0.7843840851007032   0.0271778200327233   0.0000000000000000
  0.2697570552113356   0.0598365818878674   0.0000000000000000
  0.7461418312636445   0.0313078740273454   0.0000000000000000
  0.3107174073396524   0.0599745523895525   0.0000000000000000
  0.3532197115457904   0.0593474026374948   0.0000000000000000
  0.7058944074605978   0.0354399891145804   0.0000000000000000
  0.6639684082655058   0.0395008030201497   0.0000000000000000
  0.3969170500997217   0.0580119078642495   0.0000000000000000
  0.6207078374111498   0.0434191086291270   0.0000000000000000
  0.5764634578798972   0.0471137381129498   0.0000000000000000
  0.5315950336908907   0.0505057458089039   0.0000000000000000
  0.4864703541532008   0.0535094607315534   0.0000000000000000
  0.4414549133024901   0.0560390636939180   0.0000000000000000
  0.9901595609719056  -0.0023783411927147   0.0000000000000000
  0.0326649145266362  -0.0334200843455863   0.0000000000000000
  0.9878329678703356  -0.0027145673674890   0.0000000000000000
  0.0733998606732272  -0.0440344159407381   0.0000000000000000
  0.9922372924577029  -0.0020726951087579   0.0000000000000000
  0.8846838814295012  -0.0208009306521702   0.0000000000000000
  0.9852539181750185  -0.0030832573491977   0.0000000000000000
  0.8205556230767344  -0.0253024477924150   0.0000000000000000
  0.9824277530968584  -0.0034836508822686   0.0000000000000000
 -0.0022154120548041  -0.0049277430541563   0.0000000000000000
[...]
POINT_DATA 4142
SCALARS continuity float
LOOKUP_TABLE default
0.0052683944072656206
0.004567694320700572
0.0053634447104728205
0.003954186050428337
0.0032658293359032644
0.008588408790368094
0.0025383701627306513
0.0017972645313841847
0.0038123613034009448
0.0010380333823162315
0.022523635268313722
0.00037466636435401984
-0.14000304833778512
-0.00031272750763650743
-0.0009235847213051353
-0.07778418140290695
-0.0015063774475425873
-0.1386369623882615
0.010491288572680139
-0.002078876005979955
0.012524831933996472
0.020148426561339125
0.009473925808185547
-0.0027142335549993225
0.008623945219467731
0.011939427549112968
0.007417605804818554
-0.0035176404143592395
0.007968898098104119
0.007433470186407508
0.015009915384539958
-0.004296036468098771
0.007088916745914494
0.01118692147129843
0.016621121024811246
0.025451514486916477
-0.004951489206791976
0.006900312981926038
0.028583517387185457
0.019185237540679616
0.006791147735933917
0.030323756905058334
0.007064702100291497
-0.005512862898714351
0.007042413031756801
0.02218945462857269
0.030371860647798603
0.0042646192938813905
-0.006562968142041808
-0.006031030288296212
-0.006979943558367148
0.011715856013208792
0.006818208992385237
0.026820369326759994
0.04449060622155151
0.013070569631834719
0.015475942810329891
0.008576627049988112
0.03523966891987243
0.02013568327711238
0.013713074091370268
-0.007480292950362916
0.0029518617125215514
0.005729644335361958
0.01184829516944355
-0.007822822138340225
0.008415588627022378
-0.007984802812938287
0.004911742669723011
0.007860295509621104
-0.008363607043859564
0.003975331419655285
0.007410639407563538
0.010843119795098081
-0.008044583805257785
0.003089328711113851
0.007241920956877872
-0.008602224792558153
0.007183840654097041
0.007318963587011646
0.010048419901757288
-0.008425669417028884
0.007015394433589998
0.0022179788344092303
0.004386737677879213
0.007202817258013077
0.00722062079983271
0.009250362523653506
-0.007437731074933142
-0.0057833955493670226
0.001407357423672649
0.007431993957031248
0.008551140064401974
-0.003517199173694681
-0.00046499021112711186
0.0033290770552345623
0.0005992688920095926
0.004409733448013241
0.0072634363467660905
0.008034872372015896
-0.00012823719765304653
0.010098337023762602
0.009821595399809847
-0.0008418502373247701
0.007686204139665561
0.0074114645257005035
-0.0014551904145585352
0.007545752265839807
0.004676466010819756
-0.0020138041757441836
-0.0027703121278711794
0.011898844274999761
-0.0035868028917214
0.003059443002926131
0.008441647594610243
-0.004384250311029596
0.007862908565185104
-0.005144844066945359
0.007412669210317315
-0.0056820319222300455
0.007266246304780097
-0.006263500598477463
0.007278690955935498
-0.006710910453238414
0.007405768829409974
-0.007207499113015252
0.007535087233922421
-0.007625452517520651
0.007727405297163303
-0.008129430109875132
0.007504495267498921
0.005013242033408058
-0.0081742222071463
0.008010861780366998
-0.008743213801721082
0.005171446810484687
-0.00830679609535425
0.010971495785423776
0.010783942410098925
-0.008473787935817071
-0.00833309551726355
0.008113643412264534
-0.007253082514012666
-0.005524379257100588
-0.0031713650482479098
-1.1471577411519218e-05
0.003969352782419406
0.005602340560460785
-0.00540956481420408
0.004543127508536543
0.002323953985629785
0.005544708840555643
-0.006636597308415307
0.0038776864951160384
-0.008005841951202686
0.003155902223897252
0.020906943156483372
0.011809374240782607
0.000623871504782859
0.002421559775096621
0.012110632751275212
0.001679451164916496
0.005478890375957509
0.007519774743480844
0.01170175409568318
0.0009211608606634134
-0.004077304032174597
0.04197595981622286
-0.007156508339977121
0.0002599620631595034
-0.007665759501597258
0.10213163689033743
-0.0050249489985205575
-0.0004243473518541764
0.0034849540777824738
-0.0010331018385074683
0.004600953993638659
0.08874560416516453
0.09054076148486319
0.03532514703438515
0.008964919908945825
0.009803213863853482
0.008730463076231706
0.03496195320526211
-0.0016148597626955768
0.01708698395835902
0.11250559587970858
0.022753457414570504
-0.0028104303572526568
0.027561073450526184
-0.002189116269137753
-0.00743083137217765
1.7218747185686665e-05
0.014490050977183653
0.04492655941770604
-0.003997863654112488
-0.00415348285125513
0.009788617770482464
-0.002819338998317259
0.007096153278816778
-0.004859700146434743
0.005950176283088641
0.0020144853593421644
-0.00586764378985447
0.009921291900514502
0.025656900328379622
-0.0036246881271818766
0.01733823999497796
-0.00505371964564679
0.027331526941123493
-0.004952561457890508
0.006156340836621068
0.006387143029756701
0.0068041266498745576
-0.00440058861422206
0.009580390456394318
-0.004516781502349952
0.001867799263368874
0.014668664015523449
0.015202563462930639
0.011081196163418575
-0.007165210354111809
0.026310586505050113
0.011652271228992548
-0.005052805121460187
-0.00622058963009749
-0.0038968006454895322
0.023132937821610695
0.02979034724594594
-0.006751689851433858
0.01649472451204048
0.00831741770028424
-0.0031472527474164457
-0.003787925400524241
0.03127962457526341
-0.005251358135335995
-0.001889740551925758
0.027690289317867295
-0.005616351472366773
0.005414125881653286
0.007053861145669058
0.01901762711487729
0.02175035012450388
-0.006909456809962885
0.03144358330366761
0.006051657360720384
-0.0029279034805590074
0.014119335412598556
-0.00666795136131468
-0.005702958969162313
-0.006137091315385194
-0.006382052558999343
-0.007083987556547156
-0.0023014515893045144
0.0026651411852442624
-0.006130584510264698
0.007197022719456073
0.027218754203166745
0.030955971256205077
-0.0073166017114338735
0.03192359052398897
-0.0033568698420740795
0.0022707886231002625
0.0057123234757209705
0.0064709613675398734
0.015155523837701555
0.015733105265444365
5.8020195310929664e-05
0.030543821286412032
0.025380696118902295
0.015390587163903265
-0.006388357448104282
0.0001384000069320717
-0.003778029166909005
-0.007588472628267181
0.006493953852249631
-0.003145603580777026
-0.005139089315505067
0.005688848839896088
-0.007845112177699653
-0.0023782687235263094
0.022526745332269754
-0.007930527010363385
0.022519887798755155
0.0030382473778103186
0.01119777969605939
-0.00810301324517595
0.01724277687956125
0.00484091050876659
0.011673626702567023
0.003356250289044599
0.020168677898407344
-0.008465748975617594
-0.004008200197544854
0.0038715662493512344
0.0038111209106659032
0.0036043888387601152
-0.004486493670314215
-0.0035606242748650505
0.0038267840859673797
-0.008164027289731963
0.00766272157091731
0.002980238313303045
-0.0069497860868080776
0.004013508814647714
-0.004030086482741657
-0.008727106476064218
0.006944713209557105
0.004444552345247248
-0.0037336242086620283
0.005601944810577865
-0.007497970600787665
-0.004037583254752591
-0.00371167066086393
-0.008564921336032962
0.011254649890249947
0.005547497152190845
-0.002662111251282611
0.002109844730288938
0.008913236365224708
0.0031687419195941292
0.004167234096121604
0.004866611446656115
0.018603069779189383
0.0052276426851394315
-0.003125507607248893
-0.004254434520755787
0.01037302812392322
-0.007596210044149045
-0.0029151601239677393
-0.005962903514732413
0.01228448273728706
0.0013023719483751617
-0.0020478283773705777
0.006235180124684207
0.015894668551822016
-0.004167667478659764
0.0281896299911701
-0.0037301556294508584
0.0017868448033131923
-0.0007222845510435801
0.0023112050417020452
0.0030092314971970286
-0.0069869692114746425
0.0004955130647071655
-0.0022889492586806786
0.00356881888257866
-0.007815672212824133
0.006862691314937664
-0.0004671782079801817
-0.0037857621656824363
-0.0068695215808889975
-0.00022595841995539176
-0.0711160431459198
0.009444340669917716
-0.005064545642665981
0.009313827256327314
-0.0017241910100183793
-0.0009417412912986686
-0.006927044077922507
-0.0032419778851728136
-0.0011461559524606982
-0.0026028170400633956
0.005243774844530574
-0.0015532868581054073
-0.0005447112368471963
-0.0014159913806593668
-0.005576393990587548
-0.002508494161790831
-0.08670635549287839
-0.00211076411744199
-0.0004935540347849995
-0.002863242878891779
0.00013340561247413279
0.002971677282105499
-0.007888960429251928
-0.003678002063916939
0.028608943240246175
-0.0029304753432935894
-0.008150555011171038
0.0032023034613377303
0.0007883966408132836
-0.004472540702587895
0.014012027604190395
0.0035116507762487435
-0.00683894607963635
-0.00523456481063475
0.001125172392311904
0.003761400283263097
0.0015454623731513276
-0.005770973783817186
-0.00763024542429787
0.004191887419470692
0.0022887138087761836
-0.00635410142892395
-0.008316866305811419
0.00468370053089826
0.00947553634692748
-0.006802603446680623
0.0061130951434522456
0.00520610131193921
0.0030328964918609597
-0.007299363830698636
0.004416592163341757
0.005672693162851336
0.0037638504263622597
-0.007720029278084254
-0.004983507236220852
0.006133161658860787
0.004396480689572955
-0.008225468333450761
0.0015191334853559483
0.0061503847550673785
0.0043860752090277575
0.0038887875497027676
0.008763944846412424
-0.008275276789709109
0.0053217754542549435
0.006922676547569047
-0.008683989328788146
-0.008836320646423982
0.018819809308052042
0.0044047459311097725
-0.0033399763701361723
-0.008412495128524601
-0.030371136368573297
0.010378083785695743
0.003444921365041942
0.010325891714615967
-0.032632563127382164
-0.008587202418532405
-0.006606553125970319
-0.008454090995046813
-0.032159235217370845
0.007753805990887453
0.0016946704549248598
-0.0073906007121855586
-0.0015041192709226011
-0.00568493245561308
0.004861486659151699
-0.0033625716138815666
-0.00017503941895873109
-0.00024134969869367127
-0.0021055813169575223
0.0036823774897315246
0.0012253975690406601
-0.008173647850099549
-0.006492457187222059
0.004686886677490204
-0.005307771228043709
0.0026456677762287557
-0.007560054496043939
-0.008543611488514033
0.01832823548427456
0.003725020951134708
0.0019031051527951413
0.002846570949304239
0.008239285049222462
-0.0010707189544897047
-0.0027373548018916932
-0.008232322680403872
0.01008396861126149
0.002840543098723774
-0.006433566111330727
0.003231764680760652
-0.005605488086196773
-0.00879801933483093
0.005838779644092406
0.0036881550041421903
-0.004657022492990289
0.004995407059465861
-0.004653769332896896
-0.0020948883868307866
0.005168998224095373
-0.008631107770918061
0.01644275442529903
0.004998584815837784
-0.005544884634095733
0.0019730544446256893
0.01417053168777361
0.0025854420241608195
-0.005121414935029792
0.004163290378097001
0.014869061593828267
0.0045725341693209545
-0.0038889683079712236
-0.0028101730891478094
0.0025387115266645804
-0.007664609677820747
0.0028836510776240765
-0.0060395756455478245
0.002273458013809685
0.0011666657758571271
0.0022311796037604702
0.005802636544759651
-0.006231905874899904
-0.003188016350227341
-0.004411856169968415
-0.0038154645685781596
-0.008897989813612351
-0.0008220578073755761
-0.0031026245561982893
0.0028860658511228976
0.004777471481135857
0.0003694619555007754
-0.003242105873592255
0.003205759984681887
-0.007903956795047256
0.006723791640091454
0.01843699927641533
-0.0032607487010187846
0.0092092594288803
-0.000345548721554342
0.0005374870453851801
0.009231338848725614
0.007250813540627545
0.009153522875503447
-0.0024869178648783876
-0.0010510821704826437
0.012283718747448607
-0.003133379212088822
-0.0017452959264015724
-0.0028372450228273203
0.008729077677387759
-0.001660625128470127
0.0004404282746501111
-0.0018723754408121339
0.008544312705277737
-0.0034222778495509205
-0.001922484505413499
-0.00221558099163144
0.01313039743160984
-0.0029654684539417997
-0.0013565138498679906
0.0021220892735916526
0.0005114074061534315
-0.0037699936198963744
-0.000768445115875103
-0.003928339021513584
-0.007406125235013056
0.0024346222527206864
-0.002174411831644683
-0.004560042859789257
-0.008050361818591934
0.002757915379121008
-9.81640871521767e-05
-0.005320612134398792
-0.0058173162673714205
0.002966642307252561
0.01592365281399643
-0.005858695069816858
-0.0064849374241357565
0.003376055223151562
0.0005405953874351497
-0.006438841118963105
-0.007321786118041403
0.0038970426381093547
0.0010281022058879626
-0.006886687107408033
0.004650684775059414
0.0044771576789094485
0.0012918705552819498
-0.007380218149634814
-0.005946238102549817
0.0049996443519644065
0.0020350926922999024
-0.007797269238770605
-0.0011548395211772428
0.005513144566659026
0.007976608679204317
-0.00829584426689736
-0.008273859890602154
0.00559514267039391
0.0027896562911789453
0.00330881559467156
-0.00837745498135515
-0.008343743721464703
0.00353501361935184
0.0064989784577431315
0.01159672050282167
-0.008912399304931881
0.004771466073273422
0.004055865533765775
-0.0007798641011820219
-0.008475756504683511
0.004230839855726468
0.010176850120866903
0.0034731334822648567
0.010176998245852614
0.0051173465811402705
-0.008649185438680259
-0.008541123967206611
-0.008516941700794596
-0.002154373258615901
0.007623608290930016
0.004893686940938989
-0.007455036030627321
-0.004211304947864449
-0.0057547726498235465
0.003894588676174028
-0.0034405420170427223
-0.002216268669160327
-0.0003379578902620599
-0.0038910121402781694
0.003570826478586833
0.01896825530967201
-0.004929759066887733
-0.008357331625266029
-0.0003487568051512003
0.0025634941411508305
0.0036238387528791964
0.002045283435095352
0.013097869564445865
-0.008922320394245337
-0.006109837318628161
0.0025109225093608574
0.012163151933169783
0.003989851986880792
-0.0053773568835792365
-0.003226142405942256
0.011868775638153502
-0.008755515740764877
-0.004170069385751975
0.004052315797779086
0.0012715774496917678
0.00170711976653905
0.0013080605159825854
0.001625025791521695
0.0015770665375886605
0.003037967098071869
0.0012346160162316773
0.0035124294346329347
-0.0032305335331252022
-0.004073912639095981
-0.004507366436259684
-0.0077962507685742305
0.0037120712350924164
-0.006181725436613365
-0.003379532769480873
0.0009180099594707315
-0.008249116759992424
0.004996809806898662
0.013517372982441083
-0.004589719187170733
0.008215714358270919
-0.0039823040979293095
-0.0003356194017860082
-0.0010206663479705774
0.0062987032080241406
0.0026500815356485592
-0.002806591712698516
0.00013168782614865853
0.008805052265127062
0.00256760032010432
-0.0021258463191332496
0.006450980347473571
-0.0005707042345765213
-0.004757686060522998
-0.01849443564031637
-0.000568432109841673
0.006457961928207459
0.00881436127892283
-0.0022514631685903275
0.008839476887966345
0.011341874139418433
-0.0012659983997789727
-0.0016981649553449397
-0.004688473215573895
9.242726323723267e-06
-0.004434222788837434
-0.0011294646118600287
-0.0018636588347018263
-0.007772235761458277
-0.0035089802311546662
-0.02439178471985149
-0.0048639669204338385
-0.008369708753209634
-0.00241673474184773
-0.0004747845135319238
-0.0031546506309524072
0.006050522604904492
0.00034071312808363135
-0.0032102839298653904
-0.0039462336902861776
0.011750744668744257
-0.004922045035595434
-0.007761871135261743
0.0012210635719189173
0.00013732444535486575
-0.004728110931624907
-0.0074259428407355355
0.0016089931312497857
-0.001276944521213216
-0.005486266754975769
0.003949890114008825
0.0017892173781171284
0.0008728968819782937
-0.00601933594285792
-0.006398025483823785
0.002159711921414981
0.0015988419518183144
-0.0065993566559949405
-0.0012910237790338677
0.0026911578862882234
0.007030070492448119
-0.0070398179469397925
-0.008596686044394944
0.0033193010372845957
0.0023303994487584604
-0.007530793800162805
-0.00868713975605298
0.003905470719532753
0.0030625096640544414
-0.007940914707964443
0.010066196383963175
0.004484425734394947
0.004036582707495719
-0.008436734990800249
-0.0034108306555872044
0.004634319375766052
0.003709746773841244
0.0023470702996740388
-0.007199294151867646
-0.008481718482966735
0.004593877822549633
0.005704217955754464
-0.008839341270176833
-0.009046489171267021
-0.0134716068680985
0.003436873922608456
0.004223438323451291
-0.008593064253927002
-0.01434307739702525
0.009787249134879291
0.0032424088945025367
0.009891978381270768
-0.01479927688954027
-0.00876515681781539
-0.00010216697857256209
-0.008626279815817173
-0.0038339170111823433
0.007378436824967772
-0.002867162768271999
-0.0075683355969895965
-0.001726081470469591
-0.0058791128002310825
0.004775309862852699
-0.003588664392122049
-0.0034626566969525895
-0.0005143920862452092
-0.009178418428295776
0.003357289330334627
-0.003398702651279554
2.3371277444587585e-05
0.002953025104791602
-0.005379121312329593
0.00016503742621117569
0.003882151446100305
-0.0024559767708099553
-0.00531066891978678
-0.008550233695226433
0.002422720604970993
0.0021062217801799633
0.002782944743748596
0.0005975526065407977
0.011195166556247457
-0.009110294795695539
-0.004938192633709958
0.0011351224925144569
0.010327259914441464
0.0027782376515438968
-0.00439793078611163
-0.0034882154325544855
0.010113829835768931
-0.008948888320812637
-0.004567002871970709
0.002870463650197283
0.0016810120627743347
0.0012730349384757179
0.0014942993289202612
0.0004066987393295417
0.0015228265934473149
0.0017243371441037774
0.0008063512501113491
0.0022581337936698753
-0.00035022360710100037
-0.004431276552151707
-0.003781757073646457
-0.007995352685740713
0.003350479862710568
-0.006402959394651823
-0.0029272061656682733
0.0005097245762395546
-0.008286489994422627
0.003906684696567791
0.005884393396054095
-0.0051783108594565695
0.007791570894262785
-0.004236713879407605
-0.0005792272849923098
-0.0013293223123462563
0.005336723933898988
0.002285256646960262
-0.0032616467364874027
-0.0002607651415311535
0.0071104411770962625
0.0016636921654110278
-0.0019788014015159456
0.006038768812688305
0.007225345698451023
-0.005755362303365673
-0.007216683864131336
-0.0009341440498376998
0.005388883967139965
0.008193955074710957
-0.0027239592189479273
0.008366798324419493
0.009674616461393278
-0.001615167032254809
-0.0021885767937926182
-0.006124836616192191
0.00010393554568816219
-0.006300224082449341
-0.0016461151162996404
-0.002198187190496902
-0.007835102251913431
-0.005817937279092499
-0.009241957692067643
-0.006967735170153572
-0.008739687309470398
-0.0027407420391255626
-0.0010111612983928005
-0.0023632313256459316
-0.0007400381414626212
-0.004233754975818554
0.003898151897298262
-0.006280180448515863
-0.006257983430401742
-0.0006343853681051684
-0.0004368435653819896
-0.005005826905294723
0.001245624308622528
-6.53013363880468e-05
-0.00014501140636439072
-0.005755373068055443
0.003084539413291808
0.0002526545028518695
0.00029009503332690166
-0.006281568865067241
-0.006821550065389951
0.0006826038794166959
0.0010120011126937463
-0.006854069362341287
-0.0009634101095813619
0.0012618371522632884
0.004548600798072651
-0.007287783576546097
-0.008599459472783573
0.0019407728036377708
0.0017395527952772394
-0.007768007258188341
-0.009038342899418107
0.0025797109618880057
0.0024560618804178483
-0.008171224514079095
0.008590758122515389
0.003206642761386742
0.0034056885722912756
-0.008657315595105911
-0.004281360632780747
0.0034004448986557833
0.003095968974624766
0.001087241300741006
0.004375136508282491
-0.008694634788424664
0.003761426594446143
0.004598154138039375
-0.009173509339837023
-0.009247301752754823
-0.004841584630811874
0.002532821753711756
0.0035426800808785824
-0.008776020052633752
-0.004719922173468282
0.009193547017040312
0.0024324030960927085
0.00945606281971284
-0.005247477734941117
-0.008936034158048924
0.0031441068194710295
-0.00879768688389462
-0.0012924092696546916
0.007008087195172975
-0.005070474972134266
-0.007743297056047059
-0.0005262632370918456
-0.006073365902016699
0.002873501144673698
-0.003818329433318681
-0.003893897983496984
-0.0007914321229749989
-0.009485945047376617
0.003030238821924707
-0.003820128867167111
0.0019201055366966932
0.0023296563237617347
-0.0031483087207182757
-0.0022705127200575324
0.0026520352322648203
-0.002289002627541139
-0.005780509138177855
-0.00880198627433525
0.005167409594771615
0.001501515729353744
0.0023830905071763413
-0.0015155251661794174
0.009625474731268685
-0.009357112920125341