# vtk DataFile Version 1.0
GRUMMP topologically 2D mesh
ASCII

DATASET UNSTRUCTURED_GRID
POINTS 6176 float
  1.0000000000000000   0.0000000000000000   0.0000000000000000
  0.9979736161243241   0.0002872981906159   0.0000000000000000
  0.9959038003591104   0.0005818082753016   0.0000000000000000
  0.9937894604158818   0.0008826109490225   0.0000000000000000
  0.9916311447855282   0.0011889740049165   0.0000000000000000
  0.9894256878168368   0.0015011074645448   0.0000000000000000
  0.9871732566523234   0.0018189104108560   0.0000000000000000
  0.9848739492731372   0.0021423104928037   0.0000000000000000
  0.9825241245750710   0.0024717658271048   0.0000000000000000
  0.9801244133260449   0.0028071825305054   0.0000000000000000
  0.9776732769852096   0.0031487906039340   0.0000000000000000
  0.9751690039483889   0.0034968357351786   0.0000000000000000
  0.9726117072730877   0.0038512643819321   0.0000000000000000
  0.9700001180350898   0.0042121148976419   0.0000000000000000
  0.9673332227148538   0.0045793859121594   0.0000000000000000
  0.9646079236541195   0.0049533708962095   0.0000000000000000
  0.9618249648196705   0.0053338679490647   0.0000000000000000
  0.9589807878895711   0.0057213439443832   0.0000000000000000
  0.9560767311296049   0.0061156062701256   0.0000000000000000
  0.9531120216710255   0.0065167463399167   0.0000000000000000
  0.9500819018783057   0.0069253778138591   0.0000000000000000
  0.9469876484068450   0.0073412143029309   0.0000000000000000
  0.9438286210030068   0.0077641908681895   0.0000000000000000
  0.9406001269296587   0.0081947829660712   0.0000000000000000
  0.9373041277084813   0.0086325757434285   0.0000000000000000
  0.9339368121646437   0.0090779560824189   0.0000000000000000
  0.9304976431076690   0.0095309377793780   0.0000000000000000
  0.9269838874379289   0.0099918267186165   0.0000000000000000
  0.9233965242394278   0.0104604374002928   0.0000000000000000
  0.9197323684717913   0.0109371203977286   0.0000000000000000
  0.9159901296799260   0.0114219111797446   0.0000000000000000
  0.9121662515702946   0.0119150917142392   0.0000000000000000
  0.9082612640703632   0.0124164093968364   0.0000000000000000
  0.9042711890176098   0.0129261849544228   0.0000000000000000
  0.9001985925103467   0.0134439182275261   0.0000000000000000
  0.8960367883853674   0.0139703538547480   0.0000000000000000
  0.8917881131106570   0.0145051006126241   0.0000000000000000
  0.8874465968544013   0.0150488093430172   0.0000000000000000
  0.8830132689405343   0.0156012428338051   0.0000000000000000
  0.8784843643309772   0.0161627200549514   0.0000000000000000
  0.8738585592690924   0.0167332093564690   0.0000000000000000
  0.8691331845657406   0.0173128340473851   0.0000000000000000
  0.8643080629784704   0.0179014022230632   0.0000000000000000
  0.8593790220315882   0.0184992057974382   0.0000000000000000
  0.8543443022105112   0.0191062525475961   0.0000000000000000
  0.8492020742372332   0.0197225542022908   0.0000000000000000
  0.8439504592998461   0.0203481184762133   0.0000000000000000
  0.8385847225217766   0.0209832807547837   0.0000000000000000
  0.8331043690503205   0.0216278714070098   0.0000000000000000
  0.8275075883744546   0.0222818740978654   0.0000000000000000
  0.8217896079901662   0.0229456038551552   0.0000000000000000
  0.8159499389768221   0.0236188617887649   0.0000000000000000
  0.8099850870934132   0.0243017702717010   0.0000000000000000
  0.8038929332928342   0.0249942623102002   0.0000000000000000
  0.7976697970229181   0.0256964297179088   0.0000000000000000
  0.7913134730328051   0.0264081777898121   0.0000000000000000
  0.7848218596203610   0.0271293903098903   0.0000000000000000
  0.7781898173908960   0.0278602762976724   0.0000000000000000
  0.7714169256365310   0.0286005013921829   0.0000000000000000
  0.7644979701754163   0.0293502351726533   0.0000000000000000
  0.7574308659438134   0.0301093068082177   0.0000000000000000
  0.7502135053150701   0.0308775557618342   0.0000000000000000
  0.7428404612557281   0.0316551512399728   0.0000000000000000
  0.7353096164115749   0.0324418730798164   0.0000000000000000
  0.7276172963491144   0.0332375368705936   0.0000000000000000
  0.7197598859172740   0.0340418579688506   0.0000000000000000
  0.7117355290536627   0.0348543282856948   0.0000000000000000
  0.7035389878799579   0.0356747811793425   0.0000000000000000
  0.6951650952820780   0.0365031090698871   0.0000000000000000
  0.6866122709923126   0.0373388258653197   0.0000000000000000
  0.6778754950330185   0.0381817369178559   0.0000000000000000
  0.6689534383202176   0.0390312029136988   0.0000000000000000
  0.6598376964403885   0.0398871771799410   0.0000000000000000
  0.6505290121117546   0.0407486821288951   0.0000000000000000
  0.6410191910005383   0.0416153892989160   0.0000000000000000
  0.6313056496470314   0.0424862165552765   0.0000000000000000
  0.6213823079172336   0.0433602824420315   0.0000000000000000
  0.6112489281649386   0.0442362457646169   0.0000000000000000
  0.6008963123926909   0.0451137308907019   0.0000000000000000
  0.5903211292528141   0.0459917803130241   0.0000000000000000
  0.5795184839365645   0.0468692540951747   0.0000000000000000
  0.5684857150099230   0.0477443424041717   0.0000000000000000
  0.5572148862675538   0.0486154402631608   0.0000000000000000
  0.5457024491672809   0.0494805599680832   0.0000000000000000
  0.5339780836677636   0.0503353194116202   0.0000000000000000
  0.5219860728183490   0.0511813660693644   0.0000000000000000
  0.5101253307512127   0.0519891081313360   0.0000000000000000
  0.4985043971600128   0.0527514649709832   0.0000000000000000
  0.4871181100865982   0.0534694955937708   0.0000000000000000
  0.4759663238182478   0.0541439373921026   0.0000000000000000
  0.4650424897306392   0.0547759224024376   0.0000000000000000
  0.4543414694194311   0.0553665338532900   0.0000000000000000
  0.4438615277983380   0.0559167464857066   0.0000000000000000
  0.4335966445555638   0.0564277439227250   0.0000000000000000
  0.4235422171719039   0.0569005367499369   0.0000000000000000
  0.4136931783754329   0.0573360485787389   0.0000000000000000
  0.4040479201781875   0.0577350333573017   0.0000000000000000
  0.3946007843384192   0.0580984587592611   0.0000000000000000
  0.3853459130056055   0.0584273588583778   0.0000000000000000
  0.3762828394437238   0.0587225582688298   0.0000000000000000
  0.3674052759622001   0.0589850521268143   0.0000000000000000
  0.3587104110044708   0.0592156767487264   0.0000000000000000
  0.3501952433465900   0.0594152538281565   0.0000000000000000
  0.3418548081050912   0.0595846279097528   0.0000000000000000
  0.3336858663230149   0.0597246577421592   0.0000000000000000
  0.3256868701986138   0.0598362486465025   0.0000000000000000
  0.3178507769372301   0.0599203474438374   0.0000000000000000
  0.3101776523444911   0.0599777679649948   0.0000000000000000
  0.3026620994593082   0.0600092896252224   0.0000000000000000
  0.2953022098091474   0.0600156089816429   0.0000000000000000
  0.2880942515540157   0.0599974067416477   0.0000000000000000
  0.2810344582773878   0.0599553507162620   0.0000000000000000
  0.2741224198462300   0.0598902308958287   0.0000000000000000
  0.2673508102792782   0.0598027829062179   0.0000000000000000
  0.2607208372897423   0.0596938009430880   0.0000000000000000
  0.2542268737219818   0.0595639532054747   0.0000000000000000
  0.2478699323930078   0.0594139942796022   0.0000000000000000
  0.2416426526986943   0.0592444560641495   0.0000000000000000
  0.2355443386744786   0.0590559928562533   0.0000000000000000
  0.2295742285057687   0.0588492600763349   0.0000000000000000
  0.2237267309732288   0.0586247739586633   0.0000000000000000
  0.2180011540540604   0.0583832555000465   0.0000000000000000
  0.2123936096745636   0.0581252700988444   0.0000000000000000
  0.2069018249031851   0.0578514118247249   0.0000000000000000
  0.2015265925874962   0.0575624139311738   0.0000000000000000
  0.1962639217171782   0.0572587327640815   0.0000000000000000
  0.1911098627978642   0.0569407701058159   0.0000000000000000
  0.1860635373512509   0.0566090833477142   0.0000000000000000
  0.1811225555455632   0.0562641183158228   0.0000000000000000
  0.1762831066659017   0.0559062017034564   0.0000000000000000
  0.1715472965099615   0.0555361405439852   0.0000000000000000
  0.1669099315072494   0.0551541804881659   0.0000000000000000
  0.1623702175183220   0.0547608759938091   0.0000000000000000
  0.1579259317985442   0.0543566416724963   0.0000000000000000
  0.1535748664842349   0.0539418626674859   0.0000000000000000
  0.1493147619729656   0.0535168899310313   0.0000000000000000
  0.1451447283274916   0.0530821904592715   0.0000000000000000
  0.1410625235604109   0.0526380756497570   0.0000000000000000
  0.1370659530359299   0.0521848322503466   0.0000000000000000
  0.1331567814638518   0.0517231967360234   0.0000000000000000
  0.1293276562313525   0.0512528455259629   0.0000000000000000
  0.1255804504092525   0.0507745502773552   0.0000000000000000
  0.1219131281255899   0.0502885988465475   0.0000000000000000
  0.1183237015509818   0.0497952534010120   0.0000000000000000
  0.1148102318092792   0.0492947513229479   0.0000000000000000
  0.1113720175725520   0.0487874812015910   0.0000000000000000
  0.1080070759532941   0.0482736140267307   0.0000000000000000
  0.1047146335147149   0.0477534816268928   0.0000000000000000
  0.1014927513745349   0.0472272179600503   0.0000000000000000
  0.0983395479756496   0.0466949369878610   0.0000000000000000
  0.0952554508934213   0.0461571322873805   0.0000000000000000
  0.0922363866432952   0.0456135046927440   0.0000000000000000
  0.0892828700951544   0.0450645654218522   0.0000000000000000
  0.0863942718297865   0.0445106297655928   0.0000000000000000
  0.0835678320075330   0.0439515803137779   0.0000000000000000
  0.0808019575920066   0.0433874837688950   0.0000000000000000
  0.0780971710598979   0.0428188278852694   0.0000000000000000
[...]
POINT_DATA 6176
SCALARS continuity float
LOOKUP_TABLE default
-0.0006304841250779922
-0.001993662596048898
-0.0007965372421220035
-0.000431216013782653
-0.0008670115534424315
-0.000988983024412885
-0.0009932177502555031
-0.0009226688617318289
-0.0008380493503797716
-0.0007734251100471729
-0.0006285918090097216
-0.0005633298502611391
-0.00046230776768130423
-0.00034602458821144023
-0.00022715186033004576
-0.00013787496533170535
2.525132476171933e-05
0.0001652778586194321
0.00035372238635918553
0.0004727393701380325
0.0005853592661102191
0.0007061728848201935
0.0008295400006030437
0.0009251398848191609
0.0010379208466722836
0.0011878560458708277
0.001349117471125206
0.0014884940360428865
0.0015998763413581257
0.0016929925779909515
0.0017896453055728744
0.0018861847705961348
0.0019727181615651545
0.00203811780276769
0.002092000554866708
0.0021693547853122025
0.0022606223324954998
0.0023570653221614375
0.002420966829063205
0.0024646041826704313
0.002513326904741498
0.002565080759929523
0.0026173849771075415
0.002685697062305872
0.0027654002239886526
0.002841782554229222
0.002898652094881698
0.0029368774470510195
0.0029765795649463462
0.003021655125892948
0.003067527538064721
0.003123716744139909
0.003196803399004516
0.0032758669850446
0.003342675698201207
0.0033925268802943117
0.003435964348743986
0.003477694140929157
0.003514649454932567
0.0035576423714236815
0.0036160716966292016
0.0036803955910325436
0.0037307827435290796
0.0037609552803969646
0.00377649370635298
0.003779873722445209
0.0037688085542309444
0.0037424784167536898
0.0037075183550028166
0.0036771763234546254
0.0036610571447038566
0.0036530044357229673
0.003631716610063721
0.0035788410981411065
0.003493265411182868
0.0033851000741926206
0.003266704209253442
0.003152877442363928
0.0030578511491852643
0.002980089326617632
0.002898524234362561
0.002790616682907651
0.0026518107953162505
0.0024940388121557377
0.002321554470539239
0.00208165311814591
0.0019548475968685637
0.0019204805292494396
0.001895377775514736
0.0018727832228878714
0.0018356559876254069
0.0017705292440429253
0.0016893603340531538
0.001617007311091491
0.0015657003389738739
0.001530322749670326
0.0015124206753277538
0.0015298301712707385
0.001589219408177022
0.0016602719741354074
0.0017010267453827584
0.0017038233945493447
0.0016921436629580484
0.0016908373060340045
0.0017006591433800804
0.0017177426645350658
0.001761094834791992
0.001853313396027036
0.0019670806183203424
0.002042395784216735
0.0020570483873419616
0.002042257275107029
0.002038923325516702
0.002051645743748695
0.0020653593220751883
0.002090638543107123
0.0021691797008355023
0.0022914753701001665
0.0023738576273760305
0.0023589451743869306
0.0022864041547333946
0.0022263768286997624
0.0021991951999943034
0.0021759353502792973
0.0021487815952037363
0.0021657344168622794
0.002271557007700379
0.0023626556651686935
0.002319774856033337
0.0021807616768554842
0.002027751577671211
0.0019395045777222566
0.0018631677921009816
0.0018019776067555318
0.0018660264207587078
0.0020119453847887423
0.0018559260695386016
0.001598274551989915
0.0015133485374893816
0.0014567225149998504
0.0013793308198651439
0.001268141140789381
0.0011240359587089013
0.001083381627578872
0.0012968823064623603
0.0012788826095387795
0.0010035809948936015
0.0007894790434358379
0.0006960693647142436
0.0006098317329293316
0.00046751942156817903
0.0003580638102569803
0.00024207202978389705
0.000277692489582308
0.000252679150509198
0.00011803609786466224
-8.392505023940665e-06
-0.0003080784476158569
-0.0002998101962022992
-0.00033972035317838737
-0.00049760381486482
-0.0007177645641583254
-0.0008635587422469397
-0.0008573131458547817
-0.0011682142912378094
-0.0013166884796298546
-0.001447939618030495
-0.001514203373290357
-0.001580195332113602
-0.00159867096546652
-0.0017874166792364724
-0.001901275997526666
-0.002156293310497142
-0.002228415912503832
-0.0025008012417363154
-0.0025140953954536738
-0.002774452870787171
-0.0030917753230786187
-0.0028637870192859665
-0.0033931962995474374
-0.0029767560809467394
-0.0035339272864858755
-0.00282904424711161
-0.003535974034511737
-0.002851542081015658
-0.0037999878477575637
-0.003107513228769784
-0.004224291639559711
-0.0034894415336267624
-0.004941681675682312
-0.0037581070445776603
-0.004241178878528075
-0.004367695590496994
-0.00426548085316561
-0.004214480271918092
-0.004161610109120688
-0.004378553263875124
-0.004410040037745593
-0.004685890533488527
-0.004874329142099535
-0.005361571258103881
-0.005219214083854063
-0.004414486896265483
-0.0033038603953301194
-0.005389875508669318
-0.00472154476872559
-0.0037209098724760455
-0.002591466641078541
-0.0022342409625472266
-0.0018424788910267995
0.0003540500328175136
0.0021712531393036157
0.003017439320732225
0.0037303488953748113
0.0049340561878209585
0.006023220652002097
0.006988467447050136
0.008323607648500318
0.007625679256447241
0.0076553977994469734
0.008299342071998549
0.00888876043144487
0.008915625139072372
0.008511258695183054
0.008312661674200729
0.008086771155361381
0.008030459592292006
0.007915197085077649
0.008032780584948856
0.007582230527377463
0.007818664403161302
0.007349344557304987
0.007141197830525622
0.007187921143263414
0.00663796591214961
0.006645177986855895
0.006179975332897227
0.006117724942190245
0.005761020990667736
0.005601258783491235
0.005303524268098991
0.005034999957730464
0.004900660164429186
0.004697415587105742
0.004610163279734582
0.004311322848393449
0.004302974770135042
0.003875335580095789
0.0040947418330194284
0.003829900425972225
0.00392585803760386
0.003413926059625258
0.003590106105180492
0.003214080237624173
0.003082996775109534
0.0029093251257725837
0.002757825259666961
0.0026077126294228674
0.002366620606508501
0.001988656936614955
0.0016548374303361829
0.0018689267152743228
0.0015028754989465988
0.0013031021002461102
0.0012602709071169915
0.0011039324483447912
0.0006582759228807022
0.0004432659334807142
0.0004121541584169691
0.00017697590592800224
-7.114489841309203e-05
0.00040961875216843116
0.00017688581913864247
-6.804213491933307e-05
-0.00022725068145321666
-0.0006390328141527828
-0.0011155520408952738
-0.0011926916290018437
-0.0010459560404144149
-0.0009157933555999255
-0.0009619870351669752
-0.0011102127497477079
-0.0012398744084290685
-0.0013370138218212547
-0.0014139040739365686
-0.0016024522074916153
-0.0019621534916058575
-0.002181013428678318
-0.0021895084442858574
-0.0019450205662457265
-0.001802426267149552
-0.0018408977145277974
-0.0019149581449312354
-0.0020171874707877856
-0.0022217967839973374
-0.0024133358468495848
-0.0024612709637409644
-0.00231237438955067
-0.002127780164629718
-0.002059159818957081
-0.0020721991945171
-0.0021073198332663113
-0.0021805620543626754
-0.0022587268055518596
-0.0022595023265564933
-0.002132777568491538
-0.0019331686416244017
-0.0017629381798860513
-0.001644961700068719
-0.0015308467470952923
-0.0014002038819993742
-0.001264346504997431
-0.001139597369383619
-0.0010175088293987629
-0.0008521683991614691
-0.000612544400013749
-0.0003232011789332699
-5.3717630718573466e-05
0.00015275845389987216
0.0003107809843810329
0.00044286943052100505
0.0005628545511692266
0.0006954528654126856
0.0008626350436137411
0.0010527360791868536
0.0012205833541543351
0.0013355742749158934
0.001401976613934597
0.0014332886659362
0.0014297804689771467
0.0013850418478035488
0.0013037928743786559
0.0012088360026888058
0.001126706520635284
0.0010650061011766901
0.0010069228440462942
0.0009329012087929766
0.0008394676115584938
0.0007225269500895102
0.00048614802330933086
0.0002224120144911734
-2.4943026567919653e-05
-0.00023270537901258476
-0.0003890246552830652
-0.0005032952849400858
-0.0006053223262579117
-0.000722242303527932
-0.0008573311360221073
-0.0009952074770504364
-0.0011216617931705424
-0.0012254076518746714
-0.0012937382641051885
-0.0013327160859857457
-0.0013666134202141658
-0.001411270148881875
-0.0014602556945091233
-0.0015015658922059528
-0.0015242842227092901
-0.0015274237778972965
-0.0015133961238773532
-0.001478915436070402
-0.0014177903112166876
-0.0013380041102163077
-0.0012561034246167657
-0.0011805606671429789
-0.0011056952075608677
-0.0010273192522395897
-0.0009526692815012997
-0.0008802930797456295
-0.0007986102296983459
-0.0007076461182431077
-0.0006244572010805498
-0.0005581420583097113
-0.0005011321638263453
-0.0004437736947382231
-0.0003853613492449534
-0.00033681302532655546
-0.00030144871920613535
-0.0002652714481207114
-0.00021975127068530435
-0.00017275536223290998
-0.00013617237381444386
-0.00010977329217060274
-8.527182251180493e-05
-5.797123277252997e-05
-3.5160730169444034e-05
-1.833927802175089e-05
1.0551667030333685e-05
6.80865604728986e-05
0.00013724758266825716
0.0002054794197008761
0.00026091463177521136
0.0003220385404745875
0.0003944898121886316
0.0004737219731630317
0.000579740643811116
0.0007159181490942978
0.0008990210077235758
0.001031809445192032
0.0011627635235527476
0.0013235518425093935
0.001498125043110955
0.0016708709066436806
0.001827806780247003
0.001980974135309342
0.0021255231019495406
0.0023358039987583985
0.002482111684116499
0.0026461053235990184
0.0027378408333318576
0.002828504190516936
0.0028889424000389185
0.0029247474273893645
0.002866942355011333
0.002902752072188038
0.0028068229008328576
0.002693612758366326
0.0025512983304758798
0.0023382501384549793
0.00197742591334231
0.0013655891623092985
0.001391437679175061
0.002537395595218937
-0.0007553356631224201
0.0009608278780402543
0.0006159040064808249
0.0006924057254155104
0.00042907533547665634
-7.636535518247099e-05
-0.000367461144381058
-0.0002283213260181398
0.0010561578812225423
-0.0006619535659082184
-0.002942755858592085
-0.0008529974312675884
-0.004073906642059667
-0.0009959761844674196
-0.003961003569947898
-0.0010568700281518462
0.001075235836338814
-0.0009883867781785036
-0.003724585755607567
-0.0009641303699579075
-0.002748794434177369
-0.0008713233451279105
-0.003991974966829973
-0.0007855159293674676
0.0011424282638120358
-0.0007017189840115598
-0.0032424542808445365
-0.0005734819615883884
-0.0003756965047137098
-0.00045689615973132093
-0.003917934608351935
-0.00034395738620362685
0.0012457709070041337
-0.00022955154852782381
-0.002988703653267843
-0.00014055540877217206
-0.0027420130461605187
-8.832905994149145e-06
-0.0036057090476322435
0.0001439664656571161
0.0012374553971300566
0.00030175329561805476
-0.00287246658839591
0.00045933806620759523
-0.002872456974466421
0.0005882769273208749
-0.003511281563656655
0.0007114559310985412
0.0011821156466153206
0.0008209734166765003
-0.0031095923673818394
0.0009190620682016129
-0.0024440726476021857
0.0010743064072032658
-0.0035100098375217396
0.001225013756728862
0.0010853712790680483
0.0013900561899305212
-0.003374842778201568
0.0014955815826277557
-0.000327071136952613
0.001598906269594777
-0.003534468107831639
0.001696947256884169
0.0010671115828475135
0.0017947256214484839
-0.0031156417464245187
0.00188848544738905
-0.002036492162561954
0.001970822000033213
-0.0032354188850744607
0.0020266480523268926
0.001061226271488326
0.0020843611937902367
-0.0029156103574475875
0.002162669592105891
-0.0038594669374492833
0.0022581435245282696
-0.0028582972201711123
0.002346726584280178
0.0010420258760673216
0.0024021596998072357
-0.002743904494816406
0.002447892529437643
-0.0019513271122215457
0.0024973350334646237
-0.0026157908810469786
0.0025458524025265064
0.0010145936488208437
0.002601628113302117
-0.0026527240614415684
0.0026724650678957122
-0.00022239153765410646
0.0027486929636072596
-0.0024535414630033545
0.0028196581897067157
0.0011190589121768805
0.0028683336142711264
-0.0026406540128145837
0.002907171606795909
-0.002168306840638073
0.0029491754437955668
-0.0025186924800845376
0.0029914886005597964
0.0011889523970468898
0.0030371211209017103
-0.0029620929486492754
0.0030977290651497454
-0.002950193769181479
0.0031712247788379805
-0.002583582134170263
0.0032463072594630955
0.0012715932423280616
0.0033070228269484066
-0.002976765981789361
0.003355070428052917
-0.002757790885663582
0.0033995959613222085
-0.002502110564418153
0.003438682836578269
0.0010926411324299755
0.0034747240950246537
-0.002777716184588454
0.003521698987565587
-0.00043450248805590116
0.0035825757371959767
-0.002436731835076101
0.00364290610360121
0.0009391796714404965
0.003687876558549905
-0.002701312379705371
0.003715069339207011
-0.0026080665729837247
0.0037293949577452963
-0.0023441406108076655
0.003729848600255616
0.000753071441917317
0.00371413756977941
-0.002546693213795614
0.0036842371654772985
-0.0026123686424557725
0.003648254473462803
-0.0019892624749823368
0.003620356935904481
0.00071725898709054
0.003607206648568534
-0.002269965351694465
0.0035977702159251702
-0.0026114484533589087
0.0035704711615185884
-0.0018176182692358105
0.00351028178547301
0.0006457796845054359
0.0034189534837453335
-0.0022440715321951103
0.0033062325834837245
-0.0006274325255902786
0.0031843146895688007
-0.0015952806302782711
0.0030716811590439214
0.0005870817860776076
0.0029808787330938263
-0.0020462018477110304
0.002904008666130492
-0.0024112817843175683
0.0028177975228361953
-0.001517057204597556
0.0027025926410059542
0.0007015873826352196
0.002558881770625839
-0.0019469019229414713
0.0023982894440926212
-0.002692027695035372
0.0022190969569053417
-0.0018458422820902254
0.0020009214275504886
0.0008734379982017642
0.0018419176725498441
-0.0013217395387637749
0.0018075395802249826
-0.00215549372634389
0.001773753488941033
-0.0012239793828602036
0.0017463483023174178
0.0007357693671333431
0.001712422922615799
-0.0010305590204160513
0.0016515654121877373
-0.0008718306244082829
0.0015677162482306947
-0.0009746567559433933
0.0014865299168276757
0.0007225559893235047
0.0014262638075079742
-0.0007433618658878032
0.0013860613554169073
-0.0018731385359773858
0.001362795944439787
-0.0008245071184111557
0.001368073658110478
0.0004141471203608176
0.0014151282399894151
-0.000428037676548536
0.0014845472827230408
-0.0038074853556739796
0.001532395726022233
-0.0005271775518696627
0.0015387981208694814
0.00031272388365454645
0.001521229282587726
-0.0006815581555444292
0.001510732649347799
-0.0016790513629023629
0.0015159981762428775
-0.0005383289764241954
0.001531078871757251
0.00012138465508377342
0.0015648512966278288
-0.00032545832003169335
0.0016385845423872018
0.0019841761957941463
0.0017447394572433505
-0.00032511385821365084
0.0018288657853474434
4.93138402056923e-05
0.0018507608558609686
-0.00031404216189555236
0.0018320066168664483
-0.0023374206552946447
0.0018156377822137152
-0.00015657184519871295
0.0018232453719799683
0.00018525741221528594
0.0018386223715772469
-5.342652432474119e-06
0.0018611535567253801
0.0015022781441236166
0.001916489017816346
0.0001689508019005765
0.002020663866367857
0.000357578769846167
0.002111506391429839
0.0003548405572721207
0.0021102247811687984
-0.002113840113304502
0.002041150141331576
0.0003467656788311443
0.0019645440284937784
-2.0336186328261498e-05
0.0019299266805908656
0.0005515984659989125
0.0019068181560178666
-0.000932865841330831
0.0018868149148863961
0.0004108381250110534
0.001890372645436079
-0.00015717672458242328
0.001965760145780211
0.00031053029337294063
0.002062448438177117
-0.0018189079586148332
0.002022820102684018
0.0004237496756358419
0.0019019768284052891
-0.00014377482064938663
0.0017443506833104414
0.0005482481590981546
0.0016420779531721955
-0.00288175995355561
0.0015713217056439756
0.0006365830723973524
0.0015065950311924123
-0.00030534616749668765
0.001577389207284239
0.0006869955087647369
0.001659604945413766
-0.0015602804409258837
0.0016086218538473801
0.0008697143034776018
0.001395700509370558
-0.00036601271016587975
0.0012264301000221027
0.0010988898613600777
0.001173953429877134
-0.0010405362684238809
0.0010982244745145768
0.0012522667441483345
0.0009913020485406063
-0.0004996251072061157
0.0008650334078095067
0.001121598173994143
0.0009022875652773855
-0.0017153122734950208
0.0009995188991261425
0.0010160830528045026
0.000981430242018335
-0.0006106458467759528
0.0008270938459194567
0.0010914608922855987
0.0006452562597685698
-0.004201728410392711
0.00047531185063325705
0.0011511722906315737
0.0004104848176458419
-0.000473572470178497
0.00026876003769293416
0.0013872711167223035
0.00022898931737026622
-0.0017167709665325136
8.16393668327859e-05
0.0015448322283558628
0.0002143139204486134
-0.0005020129225739873
9.328773196078417e-05
0.0017316745229070045
6.852369952829421e-05
-0.0011608509527086179
-2.0841006545886438e-05
0.001672280264393983
-0.00035279978417341115
-0.0008654676175115862
-0.0003643366851373126
0.0016059902329267125
-0.00040939901066167615
-0.0019099434097685046
-0.000554545686189298
0.0015058447610875973
-0.0006600030883043234
-0.0006734503279057409
-0.0006767222472961468
0.0015365349528485566
-0.0010204410733539574
-0.002440713652351594
-0.001131609944998394
0.001573507347207523
-0.0011080479864747739
-0.0005087639226113624
-0.0013289736857288656
0.0016022272292623917
-0.0012298340426481872
-0.0016998780437693546
-0.001387172854549376
0.0016434436617398813
-0.0013436540002264349
-0.000803621425686177
-0.0016937481164043225
0.0017617915121653678
-0.0015268272829553457
-0.0010539544636476606
-0.0018644707815185866
0.0018462298341403308
-0.0017731531965247407
-0.0008109855374521068
-0.0021483373483979907
0.001872511695574154
-0.0020103331969285577
-0.0003230794749784989
-0.002349864058919661
0.0017747131230744445
-0.0022861548674777943
-0.0010864026763492158
-0.0025429630063268623
0.0016952558068055613
-0.0024784016301929363
-0.003452813986328285
-0.0025908344801456175
0.0016640311451681874
-0.002323242360180358
-0.0009778096585639432
-0.0024340737175511697
0.00164608474277599
-0.002159607319063128
-0.0016918444605176356
-0.0024062748556785423
0.0016328353502312362
-0.002253076533346713
-0.0010316846186228278
-0.0025717807709195037
0.0016314238888565518
-0.00248905017602569
-0.000857778604143867
-0.0028313316926413673
0.0016624882865753274
-0.002695329865934297
-0.0015416121711788432
-0.002848064527255903
0.0016872151157294967
-0.0028585919557829044
0.0023133565658921525
-0.0029454454413562047
0.0016647522875454467
-0.0028056948365714983
-0.0015836447590132517
-0.002735189591013788
0.0015793370551273871
-0.002668196010239678
-0.002612863099042029
-0.0026657038963691314
0.001490101264724427
-0.002868282333425857
-0.0014138336429478818
-0.0029260334694872787
0.0014380222479626942
-0.0033949884257855646
-0.0017546162003366306
-0.0035400803376138402
0.0014082616261559915
-0.003697233938229495
-0.0010726176324547614
-0.0031364286392805783
0.0013891156966686022
-0.0027322262924014784
-0.0010427456736073143
-0.0034344746542308274
0.0013823222558109107
-0.003381300998837699
-0.0015895065381038955
-0.0033551559762109036
0.0013967379035372367
-0.002771687972650407
-0.0017440943265743067
-0.0021926397740728906
0.0014109804138122254
-0.0021383911045114775
-0.0012461134348603121
9.098882247925315e-05
0.0013986195146099216
0.001963717027852833
-0.0016922441077676918
0.0024249943715835237
0.0013461164869669846
0.0030241117202967987
-0.0016398634113828532
0.0041327855391405394
0.0012875486019957856
0.004903313613995116
-0.00137695280618355
0.005397860798983675
0.001255777506270245
0.0054625524327250605
-0.0016845858833060316
0.006094545896752266
0.0012555369162452034
0.006161336660227643
-0.0010388113995790154
0.006175268838993029
0.0012745990287126
0.006696948453564954
-0.0017880665662156057
0.006885098263257999
0.0013099477189344097
0.006635745566251178
-0.0013968702623388084
0.006557516343741035
0.0013685256438751416
0.0064247506010601885
-0.0018921564227057268
0.006410706184639047
0.0014461153519083271
0.0064449816940574545
-0.002786420030573247
0.0065665138296917575
0.0015235662912894924
0.00647193143682807
-0.002216857264532461
0.006504989773667454
0.0015807649089211316
0.006409193085388982
-0.0015974533009983267
0.006245377772299837
0.0016216968929161702
0.00616642545627067
0.0006068434619773866
0.005966051653377137
0.001667625805852205
0.005834767740934218
-0.0014556562888006592
0.005611057491414006