# vtk DataFile Version 1.0
GRUMMP topologically 2D mesh
ASCII

DATASET UNSTRUCTURED_GRID
POINTS 6176 float
  1.0000000000000000   0.0000000000000000   0.0000000000000000
  0.9979736161243241   0.0002872981906159   0.0000000000000000
  0.9959038003591104   0.0005818082753016   0.0000000000000000
  0.9937894604158818   0.0008826109490225   0.0000000000000000
  0.9916311447855282   0.0011889740049165   0.0000000000000000
  0.9894256878168368   0.0015011074645448   0.0000000000000000
  0.9871732566523234   0.0018189104108560   0.0000000000000000
  0.9848739492731372   0.0021423104928037   0.0000000000000000
  0.9825241245750710   0.0024717658271048   0.0000000000000000
  0.9801244133260449   0.0028071825305054   0.0000000000000000
  0.9776732769852096   0.0031487906039340   0.0000000000000000
  0.9751690039483889   0.0034968357351786   0.0000000000000000
  0.9726117072730877   0.0038512643819321   0.0000000000000000
  0.9700001180350898   0.0042121148976419   0.0000000000000000
  0.9673332227148538   0.0045793859121594   0.0000000000000000
  0.9646079236541195   0.0049533708962095   0.0000000000000000
  0.9618249648196705   0.0053338679490647   0.0000000000000000
  0.9589807878895711   0.0057213439443832   0.0000000000000000
  0.9560767311296049   0.0061156062701256   0.0000000000000000
  0.9531120216710255   0.0065167463399167   0.0000000000000000
  0.9500819018783057   0.0069253778138591   0.0000000000000000
  0.9469876484068450   0.0073412143029309   0.0000000000000000
  0.9438286210030068   0.0077641908681895   0.0000000000000000
  0.9406001269296587   0.0081947829660712   0.0000000000000000
  0.9373041277084813   0.0086325757434285   0.0000000000000000
  0.9339368121646437   0.0090779560824189   0.0000000000000000
  0.9304976431076690   0.0095309377793780   0.0000000000000000
  0.9269838874379289   0.0099918267186165   0.0000000000000000
  0.9233965242394278   0.0104604374002928   0.0000000000000000
  0.9197323684717913   0.0109371203977286   0.0000000000000000
  0.9159901296799260   0.0114219111797446   0.0000000000000000
  0.9121662515702946   0.0119150917142392   0.0000000000000000
  0.9082612640703632   0.0124164093968364   0.0000000000000000
  0.9042711890176098   0.0129261849544228   0.0000000000000000
  0.9001985925103467   0.0134439182275261   0.0000000000000000
  0.8960367883853674   0.0139703538547480   0.0000000000000000
  0.8917881131106570   0.0145051006126241   0.0000000000000000
  0.8874465968544013   0.0150488093430172   0.0000000000000000
  0.8830132689405343   0.0156012428338051   0.0000000000000000
  0.8784843643309772   0.0161627200549514   0.0000000000000000
  0.8738585592690924   0.0167332093564690   0.0000000000000000
  0.8691331845657406   0.0173128340473851   0.0000000000000000
  0.8643080629784704   0.0179014022230632   0.0000000000000000
  0.8593790220315882   0.0184992057974382   0.0000000000000000
  0.8543443022105112   0.0191062525475961   0.0000000000000000
  0.8492020742372332   0.0197225542022908   0.0000000000000000
  0.8439504592998461   0.0203481184762133   0.0000000000000000
  0.8385847225217766   0.0209832807547837   0.0000000000000000
  0.8331043690503205   0.0216278714070098   0.0000000000000000
  0.8275075883744546   0.0222818740978654   0.0000000000000000
  0.8217896079901662   0.0229456038551552   0.0000000000000000
  0.8159499389768221   0.0236188617887649   0.0000000000000000
  0.8099850870934132   0.0243017702717010   0.0000000000000000
  0.8038929332928342   0.0249942623102002   0.0000000000000000
  0.7976697970229181   0.0256964297179088   0.0000000000000000
  0.7913134730328051   0.0264081777898121   0.0000000000000000
  0.7848218596203610   0.0271293903098903   0.0000000000000000
  0.7781898173908960   0.0278602762976724   0.0000000000000000
  0.7714169256365310   0.0286005013921829   0.0000000000000000
  0.7644979701754163   0.0293502351726533   0.0000000000000000
  0.7574308659438134   0.0301093068082177   0.0000000000000000
  0.7502135053150701   0.0308775557618342   0.0000000000000000
  0.7428404612557281   0.0316551512399728   0.0000000000000000
  0.7353096164115749   0.0324418730798164   0.0000000000000000
  0.7276172963491144   0.0332375368705936   0.0000000000000000
  0.7197598859172740   0.0340418579688506   0.0000000000000000
  0.7117355290536627   0.0348543282856948   0.0000000000000000
  0.7035389878799579   0.0356747811793425   0.0000000000000000
  0.6951650952820780   0.0365031090698871   0.0000000000000000
  0.6866122709923126   0.0373388258653197   0.0000000000000000
  0.6778754950330185   0.0381817369178559   0.0000000000000000
  0.6689534383202176   0.0390312029136988   0.0000000000000000
  0.6598376964403885   0.0398871771799410   0.0000000000000000
  0.6505290121117546   0.0407486821288951   0.0000000000000000
  0.6410191910005383   0.0416153892989160   0.0000000000000000
  0.6313056496470314   0.0424862165552765   0.0000000000000000
  0.6213823079172336   0.0433602824420315   0.0000000000000000
  0.6112489281649386   0.0442362457646169   0.0000000000000000
  0.6008963123926909   0.0451137308907019   0.0000000000000000
  0.5903211292528141   0.0459917803130241   0.0000000000000000
  0.5795184839365645   0.0468692540951747   0.0000000000000000
  0.5684857150099230   0.0477443424041717   0.0000000000000000
  0.5572148862675538   0.0486154402631608   0.0000000000000000
  0.5457024491672809   0.0494805599680832   0.0000000000000000
  0.5339780836677636   0.0503353194116202   0.0000000000000000
  0.5219860728183490   0.0511813660693644   0.0000000000000000
  0.5101253307512127   0.0519891081313360   0.0000000000000000
  0.4985043971600128   0.0527514649709832   0.0000000000000000
  0.4871181100865982   0.0534694955937708   0.0000000000000000
  0.4759663238182478   0.0541439373921026   0.0000000000000000
  0.4650424897306392   0.0547759224024376   0.0000000000000000
  0.4543414694194311   0.0553665338532900   0.0000000000000000
  0.4438615277983380   0.0559167464857066   0.0000000000000000
  0.4335966445555638   0.0564277439227250   0.0000000000000000
  0.4235422171719039   0.0569005367499369   0.0000000000000000
  0.4136931783754329   0.0573360485787389   0.0000000000000000
  0.4040479201781875   0.0577350333573017   0.0000000000000000
  0.3946007843384192   0.0580984587592611   0.0000000000000000
  0.3853459130056055   0.0584273588583778   0.0000000000000000
  0.3762828394437238   0.0587225582688298   0.0000000000000000
  0.3674052759622001   0.0589850521268143   0.0000000000000000
  0.3587104110044708   0.0592156767487264   0.0000000000000000
  0.3501952433465900   0.0594152538281565   0.0000000000000000
  0.3418548081050912   0.0595846279097528   0.0000000000000000
  0.3336858663230149   0.0597246577421592   0.0000000000000000
  0.3256868701986138   0.0598362486465025   0.0000000000000000
  0.3178507769372301   0.0599203474438374   0.0000000000000000
  0.3101776523444911   0.0599777679649948   0.0000000000000000
  0.3026620994593082   0.0600092896252224   0.0000000000000000
  0.2953022098091474   0.0600156089816429   0.0000000000000000
  0.2880942515540157   0.0599974067416477   0.0000000000000000
  0.2810344582773878   0.0599553507162620   0.0000000000000000
  0.2741224198462300   0.0598902308958287   0.0000000000000000
  0.2673508102792782   0.0598027829062179   0.0000000000000000
  0.2607208372897423   0.0596938009430880   0.0000000000000000
  0.2542268737219818   0.0595639532054747   0.0000000000000000
  0.2478699323930078   0.0594139942796022   0.0000000000000000
  0.2416426526986943   0.0592444560641495   0.0000000000000000
  0.2355443386744786   0.0590559928562533   0.0000000000000000
  0.2295742285057687   0.0588492600763349   0.0000000000000000
  0.2237267309732288   0.0586247739586633   0.0000000000000000
  0.2180011540540604   0.0583832555000465   0.0000000000000000
  0.2123936096745636   0.0581252700988444   0.0000000000000000
  0.2069018249031851   0.0578514118247249   0.0000000000000000
  0.2015265925874962   0.0575624139311738   0.0000000000000000
  0.1962639217171782   0.0572587327640815   0.0000000000000000
  0.1911098627978642   0.0569407701058159   0.0000000000000000
  0.1860635373512509   0.0566090833477142   0.0000000000000000
  0.1811225555455632   0.0562641183158228   0.0000000000000000
  0.1762831066659017   0.0559062017034564   0.0000000000000000
  0.1715472965099615   0.0555361405439852   0.0000000000000000
  0.1669099315072494   0.0551541804881659   0.0000000000000000
  0.1623702175183220   0.0547608759938091   0.0000000000000000
  0.1579259317985442   0.0543566416724963   0.0000000000000000
  0.1535748664842349   0.0539418626674859   0.0000000000000000
  0.1493147619729656   0.0535168899310313   0.0000000000000000
  0.1451447283274916   0.0530821904592715   0.0000000000000000
  0.1410625235604109   0.0526380756497570   0.0000000000000000
  0.1370659530359299   0.0521848322503466   0.0000000000000000
  0.1331567814638518   0.0517231967360234   0.0000000000000000
  0.1293276562313525   0.0512528455259629   0.0000000000000000
  0.1255804504092525   0.0507745502773552   0.0000000000000000
  0.1219131281255899   0.0502885988465475   0.0000000000000000
  0.1183237015509818   0.0497952534010120   0.0000000000000000
  0.1148102318092792   0.0492947513229479   0.0000000000000000
  0.1113720175725520   0.0487874812015910   0.0000000000000000
  0.1080070759532941   0.0482736140267307   0.0000000000000000
  0.1047146335147149   0.0477534816268928   0.0000000000000000
  0.1014927513745349   0.0472272179600503   0.0000000000000000
  0.0983395479756496   0.0466949369878610   0.0000000000000000
  0.0952554508934213   0.0461571322873805   0.0000000000000000
  0.0922363866432952   0.0456135046927440   0.0000000000000000
  0.0892828700951544   0.0450645654218522   0.0000000000000000
  0.0863942718297865   0.0445106297655928   0.0000000000000000
  0.0835678320075330   0.0439515803137779   0.0000000000000000
  0.0808019575920066   0.0433874837688950   0.0000000000000000
  0.0780971710598979   0.0428188278852694   0.0000000000000000
[...]
POINT_DATA 6176
SCALARS continuity float
LOOKUP_TABLE default
-0.013990954681995169
0.004008413242317131
0.00486241959855153
0.003800047260971536
0.003688973801469683
0.0037053248970432716
0.003557788938080823
0.0035457043540857353
0.0035136103095648086
0.0034593495041172766
0.003343598455252871
0.0033013426391960577
0.0031307559240908193
0.0030047405986688754
0.002854872530611656
0.002773050377062857
0.002716375266235774
0.002671391463854338
0.002545382824004174
0.002468296519518841
0.0023328250093317465
0.002224923049620306
0.0021226787814043256
0.0020485744058095848
0.0020086279774188956
0.0019655950418671925
0.0018983462946750946
0.00181383665054316
0.0017390222718445109
0.0016766922104265967
0.0016170881323031329
0.0015553625145569947
0.0014926316655980388
0.0014366776217642017
0.0014076561511323982
0.0014019008873646065
0.0013924924687690739
0.0013707487830099546
0.001331697991384499
0.001290066309226686
0.0012577988872374845
0.0012255602529712025
0.0011912865618067202
0.001170600714793822
0.0011547344711990224
0.0011296981979942358
0.001083196741973769
0.0010147533733786951
0.0009351189241371691
0.0008612905684271764
0.0007994309257572101
0.0007583328351579717
0.0007278518382757936
0.0006894942651435371
0.0006321382357761847
0.0005519130402416415
0.0004601421181680301
0.0003744852655312848
0.0003144577947525255
0.0002869813477195903
0.00028921024462488375
0.0002996178620270374
0.0002997276278781529
0.00028957313696770503
0.00027315273070480615
0.0002621002440688316
0.00025997966106875976
0.000260190118747637
0.0002609714464535867
0.00027252043876811987
0.000313097317437243
0.00038738190501503173
0.00047809754739471937
0.0005591602816270756
0.000621409228569528
0.0006757366843046617
0.0007398893527840766
0.0008215643494542625
0.0009260193440234429
0.001060053247888807
0.0012093882859737096
0.001336017056682593
0.0014225535350746133
0.0014828961243362664
0.0015272779946500215
0.0015485960139607364
0.0015570680281792675
0.0017073714898532097
0.001860999262146809
0.0019723766672613842
0.00204141114648062
0.0020789253010192643
0.002106585541568193
0.0021320728842838654
0.0021501806797614626
0.0021526492873176826
0.0021382200964001883
0.0021129125737096833
0.002067900702441481
0.0019839170693146803
0.0018555550286310008
0.0017106116424428193
0.0015715355890168429
0.001432096106467395
0.0012774503626986745
0.001106596652482094
0.0009330609858508698
0.0007634092877016189
0.0005798342615615146
0.0003671026363148043
0.00014883355455040756
-3.0438499799291237e-05
-0.00016970257282847032
-0.0002984956756897867
-0.00042804498469849726
-0.0005473830879334832
-0.0006417662177101499
-0.0007162914375153826
-0.0008018918412981466
-0.0009046035362414782
-0.0009683767107063337
-0.000977226687136657
-0.000973547995699743
-0.0009957401330823357
-0.001036218149725809
-0.0010786431390544372
-0.0011050336348774272
-0.00112627899474637
-0.0011529538774882504
-0.001144476595172709
-0.0010781602165914764
-0.0009638586246360406
-0.0008689691784282835
-0.0008055882323277926
-0.0007803626249969025
-0.0008088431413640655
-0.0009284298714146602
-0.0008856175562730825
-0.0006381878711062981
-0.00042701219359497566
-0.0003244070644743346
-0.0002545996463281832
-0.000143712073177018
1.1933527443445977e-05
-5.0855279165623235e-05
-0.0005399548289229463
-0.0004623029197959641
-4.6139123083340225e-05
0.0003966902968008697
0.0007133502567698476
0.0008916328250236929
0.0010469941309241065
0.0011875656424473306
-0.0004967407483367014
0.0008898546613042982
0.0005355475433413092
0.0009712182546077167
0.0009645784453132719
0.001590994685791204
0.0018380136869692297
0.002013213146628407
0.0023785434349963405
0.000824378747041243
0.0023423934766899556
0.0019695067359889505
0.0021240546592779367
0.0020851853220756078
0.0024046265114746465
0.0021363770181232877
0.002047548361498491
0.0023034428899664492
0.002414842075086793
0.0023372692486562678
0.0024722435008890063
0.002226139517098946
0.002385769487703479
0.002414573939289132
0.000953640778355037
0.0026915077881169798
0.0007009945892298064
0.00251496003984437
0.0002112090777497622
0.002654810631584111
0.0001764711505626891
0.0024168795441947494
-0.00013863903766001044
0.0020444374475383164
-0.0005927636070502193
0.0014983704598355927
-0.001586672768215818
0.0015087823215483352
0.0008891200359358888
0.0012495135611898358
0.0013846644452576325
0.0012698658553784137
0.0009492215536400086
0.0007528077468129376
0.0007878729310404078
0.0007387688367919049
0.0008082488510743427
0.000839838392894881
0.0012146366802715444
0.0016951252913161808
0.0024419392865647
0.001247679543558742
0.0035821725410103145
0.003059218262357011
0.0031873114139584578
0.003685803574465267
0.00459540337517964
0.006155885032779505
0.006397706431281612
0.007940179356165087
0.009415029920653298
0.010658401245202093
0.011849060183091275
0.012803315344182518
0.010843008012946975
0.013069105904150466
0.01403512826400078
0.013350929312680547
0.012230111963661205
0.01154661280635008
0.01153044828216472
0.010934967455306175
0.010507106502897875
0.010230643583373111
0.009735381415918396
0.008907196986969249
0.008817107301898356
0.008191052550332591
0.00790747140266896
0.00801000580888541
0.005166942552668301
0.0073163801876198085
0.004372529408553792
0.006584586667407112
0.004000329656328813
0.0062408245576393625
0.0036910428682483077
0.005937511288296341
0.003453730558741964
0.005590728272346423
0.002272474035439591
0.004932359204194387
0.001937103439528815
0.004613030991796574
0.0017758227825428437
0.003522201937014353
0.0032789660746275827
0.0024833890058731604
0.002356855367309391
0.002371144665142311
0.002194628562853733
0.0019611582311922036
0.0022354693046745043
0.0019441808373371742
0.0020322758753577837
0.001836729944080781
0.0022568728519822136
0.0001551445145877041
0.0019331282445511184
0.0017259393370001959
0.001630473953836957
0.0013067161314230845
0.000644045030685871
0.0008475503399639835
0.0003431865557582801
0.00044346027695080535
0.0010529216198144503
-3.822762232006324e-05
0.0010526925501802733
0.0008670769349900451
0.0007005190235866857
0.0003352438548156663
9.335644137143702e-05
0.00018194559894943866
0.0003902242292393089
0.000603414802369347
0.0004225832214784846
0.0002740178963509539
0.0002576224699627743
0.00024923762637049304
0.00017741716327383187
4.326645008110337e-07
-0.0001494206846028811
-5.172060059861792e-05
0.00010303545494431164
0.0003267111078539231
0.00026757541151159676
0.00017800970813309014
0.00014793012950582788
8.20560562186993e-05
-1.1226012016114522e-05
-2.5582067450698003e-06
8.427771248290989e-05
0.0001578210786995873
0.000124791476972269
6.183317212145156e-05
4.5298678090836356e-05
2.6197695938437758e-05
-1.2686202270414526e-05
-2.533115555056633e-05
5.0616462110988115e-06
2.3702593017500653e-05
-2.5287343208822765e-05
-0.00010964654230457471
-0.00017192932313671443
-0.00020621693897135353
-0.00024305985092211877
-0.00029146606742634813
-0.000346974080948859
-0.0003871095058526838
-0.0004110018692534942
-0.0004495530915371847
-0.000537328288125006
-0.0006658026804744585
-0.0007896101453351029
-0.000881985647042942
-0.0009433169609222207
-0.0009736159159636394
-0.0009677525990338194
-0.000934848462672563
-0.0008956375510946071
-0.0008575478437587536
-0.0008043022456869247
-0.0007231346227294759
-0.000616801619635708
-0.0004993688245592507
-0.00037876702574953365
-0.0002538197565290669
-0.00012060064617091073
1.781906623261673e-05
0.0001532710630652078
0.0002832696369166206
0.0003997532922155216
0.0004606331845788883
0.0004563750757969233
0.0006562886122438669
0.0010295355660457058
0.0013056068395086004
0.0015407881874358411
0.0017170255195810675
0.001812250736216079
0.0018596515537005487
0.0019257075792829196
0.0020456539738421447
0.0022094906584585903
0.00239790431330924
0.0025788677088435003
0.0026972456965405744
0.0027188917114071808
0.0027033284356832404
0.0027347407262228707
0.0028274881899150984
0.002941897438921307
0.003056564055858874
0.0031795464703844294
0.003307230241660981
0.0034062398039987245
0.003442013331640133
0.0034214331077751813
0.0033879513928078515
0.0033979156000162234
0.0034619842692057818
0.0035515701606659285
0.0036290198986969
0.0036714344073944896
0.003652360857980254
0.0035680043553504314
0.00346978747481259
0.003412227151626517
0.003389431860438286
0.0033672091255992713
0.0033325528283336347
0.003289659946182388
0.0032443088554424005
0.0031818682389473363
0.003085283640595627
0.0029668443351922114
0.0028675917065632173
0.0028179640597457522
0.002806839391512897
0.002806376886070013
0.0028046509822096
0.002807540398541674
0.00281489523859893
0.0028113562815645175
0.002795618209417964
0.00276615384621857
0.002736966384532687
0.0027332287798430667
0.0027717567665970296
0.0028407650978036552
0.0029206702675542372
0.0030079252008850957
0.003090737159814408
0.003125436414872376
0.0031199973229429304
0.0032132291125529715
0.003300530388406234
0.003363000138284344
0.0034032355882536447
0.0034400049120566997
0.0035059938739507024
0.0034537863184948446
0.003448477946769265
0.003278211337988911
0.003104404286053197
0.0029653220732231648
0.002915994776431334
0.002815293509498901
0.0027645719822746127
0.00258591997986991
0.002469172744281229
0.00229806062698026
0.0020850690198402845
0.001922438680160862
0.0019836582908015236
0.0019473660092145296
0.0022812104437793567
0.0026411600965605873
-0.00011497494871452126
0.0042341681915254075
0.002022856538766908
0.002486409332216351
0.006066246653533603
0.009933143042268302
0.006423782815744203
0.004071782895949425
0.004035925087350747
0.0026716929965035574
0.004401017989161006
0.0030949027377060057
0.003975475681328414
0.002141375208253788
0.003877536122459643
0.0027977873735979507
0.003816852062974876
0.0025479916376176725
0.003690840589627442
0.002574059361314614
0.0036486006872329603
0.0008056425461983745
0.0036586624417759162
0.002364677235477734
0.0035880801678574124
0.002448919097984447
0.0035269945750751705
0.002876696689556055
0.0033816040311609326
0.004389809112450185
0.0032409084868952054
0.0020793989066646137
0.0031100131839302933
0.0023828781231553567
0.0029646334478844166
0.002883576386797036
0.002907189066111912
0.0005829877123223371
0.0028462822151785255
0.0021834692937727626
0.002781593486918145
0.002278436855807818
0.0026933064885047305
0.003102255986995357
0.002555161484703818
0.003129188594418962
0.002428208456612718
0.0025436016106583814
0.0023182362936853868
0.0021660368883503213
0.0022185651884376605
0.0034524141853877408
0.002166892694806052
0.0005650173406426689
0.0021133142970321413
0.002934158967361101
0.0020612997841009686
0.0020770682774418447
0.001974781797647718
0.003352351699778532
0.0019117087784573045
0.004407347379781633
0.001838705680295311
0.0026329659684565256
0.0017733883243966383
0.002042954964467206
0.0017115710213484773
0.0034047815181751373
0.0016477751293293757
0.0011495658445757955
0.0015866903463868088
0.0030591501694210606
0.0015341596354524073
0.0020018861015990486
0.001520631477020427
0.0038769929530368544
0.0015108730817927
0.0035681766045443943
0.0015099606036440606
0.0034855927476842427
0.001477354182556161
0.001960925260838583
0.0014445731801684244
0.00435016797104342
0.0014091513662199396
0.0013589596924569421
0.0013798439890279218
0.00401903900387994
0.0013467124510196467
0.0019109044407031723
0.0013183381898184564
0.004692086952623924
0.001302145337076896
0.004479074866854493
0.001287597105729701
0.004423727196443968
0.001257584934141843
0.0019336104966936895
0.0012030471398884485
0.004935108440346208
0.001134200113113059
0.0014278205255657862
0.0010630927366302848
0.0046957145247693045
0.0009966687119209042
0.0019811188434155367
0.0009432467002363381
0.0046298134864963605
0.0009059426830249148
0.002904821164099614
0.0008730493872677556
0.004438731211817473
0.0008300143994639013
0.002111839133300007
0.0007651463839438854
0.0045965118181597545
0.000682155128539899
0.0005674591177633529
0.0005959527774005535
0.0043933785249389975
0.0005219670770115447
0.002064036822172369
0.00047376592787066725
0.004760067539731965
0.00045751487471364837
0.004401554788096142
0.0004606464005509278
0.004850060678521977
0.0004679651224814748
0.002032502942534455
0.00046428888876948616
0.005060711455464749
0.0004522123538564039
0.0008612992626541806
0.0004386442973840113
0.005101751384533603
0.00043388141883977027
0.0020220782341196005
0.0004349226023611144
0.005279176579277474
0.0004398970003926275
0.0047418932363526255
0.00044952439958070736
0.005341935503928164
0.00047571837341968035
0.0020782653363691696
0.0005302270311122999
0.005576508105287663
0.0006088707945539881
0.0006508366610004615
0.0006951590026478577
0.005686624585283913
0.0007722633279847468
0.0020903090435765814
0.0008371079063348882
0.0053731278484544015
0.0009030394593184039
0.004324899764673469
0.000983820200245198
0.005279090788337739
0.0010814190102563664
0.002067315463252663
0.0012028561314457818
0.005230619916506052
0.001351265777436441
0.0008671682392497811
0.0015048403982165187
0.005138073705132307
0.0016312335103513495
0.0021298073726525586
0.0017243372724489333
0.0050272156715724485
0.0017993504361922495
0.003070842045953479
0.0018669867263497839
0.004901287570171528
0.0019081520598628436
0.0021908681093488046
0.0018834791350279992
0.005083960099132577
0.002020447785707967
0.0012163609057137302
0.002183688908712874
0.0051257189755975945
0.0023163914127536066
0.0022712722065469683
0.002408107536197778
0.00515594450680278
0.002462504829744864
0.0042379439244121225
0.00250062074902733
0.004954305982378514
0.002538652699080349
0.002361685988725194
0.0025752366049233916
0.00485030879904136
0.0025975089077917204
0.001639774959439655
0.0026013840543583624
0.0046790089198715315
0.0025934072754965755
0.0023631734231909876
0.0025726820937632374
0.004271369713771257
0.0025234487330777888
0.002986568501337909
0.0024290808681418402
0.003956574570779861
0.0023011409226501994
0.002425710250127539
0.0021741426714982476
0.0038152545965335592
0.0020557793202569817
0.001745338569468495
0.001931619919950813
0.0038539106755265872
0.001789192765724029
0.0024076596272125756
0.0016375684142756052
0.00410171150814262
0.001490035866167042
0.007807419401354423
0.001345771606614002
0.004069256545639391
0.0011881595072761987
0.002402335509423269
0.0010094723465183721
0.003967914639043174
0.0008447293858288353
0.0010971394950074925
0.0007230758234483106
0.0037733003383818597
0.0006320140374561941
0.0023984144405767823
0.0005453617538001844
0.003572518513815488
0.00046128210336269105
0.0008312042646637077
0.0003915687411619773
0.0032933372260779683
0.0003488629062558413
0.0024802685528902174
0.0003270433778003888
0.0031359170821609298
0.0003055378668251138
0.0015435644249493154
0.000284509462972798
0.002773889170010625
0.0002903105329485395
0.0025003243836674025
0.00032975315465189525
0.0027921409975997565
0.0003660394326100707
0.004179108366882583
0.00038193023422232496
0.0028557508127329714
0.0003814530915528199
0.0026731930126036862
0.00038156267584745277
0.0028469507577951313
0.00040383602849682716
0.0020236677499994127
0.0004277265520291331
0.0028110643670263545
0.0005346264208871809
0.002739045091551998
0.0006631138436095732
0.0026821620446642706
0.0008218483535396079
0.0034987825372449245
0.0009493603887489146
0.002519949825806235
0.0010483348228638042
0.002753364884991551
0.001130398349054018
0.0023469517944459087
0.0011338109360138334
0.0016676280751319844
0.0011229964029092247
0.0022885520821025176
0.0012138253923536565
0.0028840136178987013
0.0014740316642695987
0.0020950817365230617
0.0017036319856395695
0.004102733411683561
0.001893002029176361
0.002040457854037961
0.0020497597429353018
0.0029358094248522863
0.0021824931782285285
0.0019921531180618394
0.00230528834787542
0.002083937549291485
0.0022090390253616827
0.001905413111898055
0.00195556348794114
0.0028520458986562697
0.002116979883836757
0.0018615820835485549
0.002371826225339225
0.002482641730353433
0.0028480193877725387
0.0017106069002835764
0.0032113303559040615
0.002728893606030832
0.003462559593527063
0.001640329090142056
0.00366969235877594
0.002858505047946158
0.003737321886198497
0.0015706505039341325
0.0035352197207429922
0.0027869323216061777
0.0033463844115758433
0.0015344004550360796
0.003274211142057933
0.003998517786465827
0.0036133660130010696
0.0013848694618891976
0.003746955538195634
0.0027533092923057736
0.004275981195062453
0.001322135026334934
0.004621606100614345
0.003400891224956411
0.004945998290454985
0.001278567109710998
0.005240807554533882
0.0030207335601361127
0.005205803058098507
0.0012795022421255608
0.0050732060247729825
0.003965092735263998
0.005163983401558381
0.001257175194625199
0.004987715165424961
0.003316825915475021
0.004993472320795211
0.001209595479270239
0.005133951474241509
0.0025659699354200105
0.004984295126717148
0.0011387107736340262
0.005335992527793697
0.003600267182603975
0.005630830979104795
0.0011193295438627435
0.005730351833190318
0.003933880364288477
0.005688484470588623
0.0011114543358697012
0.005685213187744975
0.003708213404377994
0.005527196104092339
0.001115465999607651
0.005486730111413874
0.003528783884966298
0.00531148643555902
0.00109108578102922
0.005303000666960585
0.0037038834845778733
0.005039850850093318
0.0011135342516724214
0.00509496344484664
0.0023395948108756986
0.0051151945120557
0.0011709978616091167
0.005239100129745465
0.00359629158394292
0.005316788275359181
0.0012373369303414795
0.005258963267155384
0.0019881766401926757
0.005093065717209868
0.001298383543926967
0.004989307974623178
0.0035694971335917254
0.004712218687461552
0.0013664740855867709
0.00442018649105114
0.003880179083665515
0.0042144230707275585
0.001461184912842633
0.004242044515031397
0.003163962433612165
0.0043663897576372256
0.00159171667082369
0.003945983104776752
0.00754582273701901
0.004260512165785619
0.0017268104424198792
0.0041671172921005535
0.0032392690434162007
0.004377787739094788
0.00185407136818325
0.003828093387490551
0.0038984782171609736
0.003963782085844202
0.0019811869595763145
0.0035624675696294336
0.0034660884540378798
0.003808345677642917
0.0021208133918884818
0.00346364016446158
0.0017844700180770538
0.0038369102582464544
0.0022632125857295475
0.0037722966488750124
0.003951344997616193
0.003946659148137822
0.0023922960739699854
0.003983457362406772
0.0037488679416672636
0.004036096349952385
0.002500567856618022
0.004141881594599868
0.004090750343443469
0.00438844287321601
0.0025991510936680656
0.004434963725411372
0.0019197736978094472
0.0046867866964256264
0.0027055860235679226
0.005361340807190254
0.0045877866294587785
0.007147450674233
0.00280611327070916
0.006124879846560733
0.0015793993770523728
0.00753077568019531
0.002877298456227006
0.008883183416512883
0.0044536337151483835
0.010035443286174565
0.0029171604968606956
0.011207181895387223
0.0018606854420329967
0.012203327650013826
0.0029360411629202206
0.013248758542559542
0.004099586946814766
0.013558522622173826
0.0029435785739105303
0.014200201306324187
0.003600253665468981
0.0148733688857025
0.002933016241258318
0.014715151367145586
0.0038946782552448595
0.015037009311766372
0.002901076307238965
0.014610709708272038
0.0020563810960311287
0.014872740398327769
0.0028534809215847944
0.01418311444631873
0.0035807387607276952
0.01414159630827937
0.0028024284946949686
0.013902689778437255
0.004184643272723056
0.012795479537621751
0.0027520290757718294
0.012293972031712199
0.0037392273419970114
0.011905127249943312
0.002685653415228046
0.01155004406653738
0.002871649242604636
0.011048747117963185
0.002585602519248168
0.010920975446222052
0.0024498305578357187
0.010259702148820042
0.0024517456116337957
0.010015194321355537
0.003546230354069808
0.009551639535391803
0.002296198011068924
0.009488552708173474
0.0036666203174376016
0.00915131163187316
0.0021545352662762957
0.009061872555991097
0.002765952458173001
0.008762842919829547
0.0021923186186578363
0.00876231375175303
-0.0003959619205931166
0.008519525518027767
0.002153785771766923
0.008315149810677805
0.002669461365288413
0.008062313131330334
0.002029563896002336
0.007822545186473455
0.0037324710794447023