# vtk DataFile Version 1.0
GRUMMP topologically 2D mesh
ASCII

DATASET UNSTRUCTURED_GRID
POINTS 6176 float
  1.0000000000000000   0.0000000000000000   0.0000000000000000
  0.9979736161243241   0.0002872981906159   0.0000000000000000
  0.9959038003591104   0.0005818082753016   0.0000000000000000
  0.9937894604158818   0.0008826109490225   0.0000000000000000
  0.9916311447855282   0.0011889740049165   0.0000000000000000
  0.9894256878168368   0.0015011074645448   0.0000000000000000
  0.9871732566523234   0.0018189104108560   0.0000000000000000
  0.9848739492731372   0.0021423104928037   0.0000000000000000
  0.9825241245750710   0.0024717658271048   0.0000000000000000
  0.9801244133260449   0.0028071825305054   0.0000000000000000
  0.9776732769852096   0.0031487906039340   0.0000000000000000
  0.9751690039483889   0.0034968357351786   0.0000000000000000
  0.9726117072730877   0.0038512643819321   0.0000000000000000
  0.9700001180350898   0.0042121148976419   0.0000000000000000
  0.9673332227148538   0.0045793859121594   0.0000000000000000
  0.9646079236541195   0.0049533708962095   0.0000000000000000
  0.9618249648196705   0.0053338679490647   0.0000000000000000
  0.9589807878895711   0.0057213439443832   0.0000000000000000
  0.9560767311296049   0.0061156062701256   0.0000000000000000
  0.9531120216710255   0.0065167463399167   0.0000000000000000
  0.9500819018783057   0.0069253778138591   0.0000000000000000
  0.9469876484068450   0.0073412143029309   0.0000000000000000
  0.9438286210030068   0.0077641908681895   0.0000000000000000
  0.9406001269296587   0.0081947829660712   0.0000000000000000
  0.9373041277084813   0.0086325757434285   0.0000000000000000
  0.9339368121646437   0.0090779560824189   0.0000000000000000
  0.9304976431076690   0.0095309377793780   0.0000000000000000
  0.9269838874379289   0.0099918267186165   0.0000000000000000
  0.9233965242394278   0.0104604374002928   0.0000000000000000
  0.9197323684717913   0.0109371203977286   0.0000000000000000
  0.9159901296799260   0.0114219111797446   0.0000000000000000
  0.9121662515702946   0.0119150917142392   0.0000000000000000
  0.9082612640703632   0.0124164093968364   0.0000000000000000
  0.9042711890176098   0.0129261849544228   0.0000000000000000
  0.9001985925103467   0.0134439182275261   0.0000000000000000
  0.8960367883853674   0.0139703538547480   0.0000000000000000
  0.8917881131106570   0.0145051006126241   0.0000000000000000
  0.8874465968544013   0.0150488093430172   0.0000000000000000
  0.8830132689405343   0.0156012428338051   0.0000000000000000
  0.8784843643309772   0.0161627200549514   0.0000000000000000
  0.8738585592690924   0.0167332093564690   0.0000000000000000
  0.8691331845657406   0.0173128340473851   0.0000000000000000
  0.8643080629784704   0.0179014022230632   0.0000000000000000
  0.8593790220315882   0.0184992057974382   0.0000000000000000
  0.8543443022105112   0.0191062525475961   0.0000000000000000
  0.8492020742372332   0.0197225542022908   0.0000000000000000
  0.8439504592998461   0.0203481184762133   0.0000000000000000
  0.8385847225217766   0.0209832807547837   0.0000000000000000
  0.8331043690503205   0.0216278714070098   0.0000000000000000
  0.8275075883744546   0.0222818740978654   0.0000000000000000
  0.8217896079901662   0.0229456038551552   0.0000000000000000
  0.8159499389768221   0.0236188617887649   0.0000000000000000
  0.8099850870934132   0.0243017702717010   0.0000000000000000
  0.8038929332928342   0.0249942623102002   0.0000000000000000
  0.7976697970229181   0.0256964297179088   0.0000000000000000
  0.7913134730328051   0.0264081777898121   0.0000000000000000
  0.7848218596203610   0.0271293903098903   0.0000000000000000
  0.7781898173908960   0.0278602762976724   0.0000000000000000
  0.7714169256365310   0.0286005013921829   0.0000000000000000
  0.7644979701754163   0.0293502351726533   0.0000000000000000
  0.7574308659438134   0.0301093068082177   0.0000000000000000
  0.7502135053150701   0.0308775557618342   0.0000000000000000
  0.7428404612557281   0.0316551512399728   0.0000000000000000
  0.7353096164115749   0.0324418730798164   0.0000000000000000
  0.7276172963491144   0.0332375368705936   0.0000000000000000
  0.7197598859172740   0.0340418579688506   0.0000000000000000
  0.7117355290536627   0.0348543282856948   0.0000000000000000
  0.7035389878799579   0.0356747811793425   0.0000000000000000
  0.6951650952820780   0.0365031090698871   0.0000000000000000
  0.6866122709923126   0.0373388258653197   0.0000000000000000
  0.6778754950330185   0.0381817369178559   0.0000000000000000
  0.6689534383202176   0.0390312029136988   0.0000000000000000
  0.6598376964403885   0.0398871771799410   0.0000000000000000
  0.6505290121117546   0.0407486821288951   0.0000000000000000
  0.6410191910005383   0.0416153892989160   0.0000000000000000
  0.6313056496470314   0.0424862165552765   0.0000000000000000
  0.6213823079172336   0.0433602824420315   0.0000000000000000
  0.6112489281649386   0.0442362457646169   0.0000000000000000
  0.6008963123926909   0.0451137308907019   0.0000000000000000
  0.5903211292528141   0.0459917803130241   0.0000000000000000
  0.5795184839365645   0.0468692540951747   0.0000000000000000
  0.5684857150099230   0.0477443424041717   0.0000000000000000
  0.5572148862675538   0.0486154402631608   0.0000000000000000
  0.5457024491672809   0.0494805599680832   0.0000000000000000
  0.5339780836677636   0.0503353194116202   0.0000000000000000
  0.5219860728183490   0.0511813660693644   0.0000000000000000
  0.5101253307512127   0.0519891081313360   0.0000000000000000
  0.4985043971600128   0.0527514649709832   0.0000000000000000
  0.4871181100865982   0.0534694955937708   0.0000000000000000
  0.4759663238182478   0.0541439373921026   0.0000000000000000
  0.4650424897306392   0.0547759224024376   0.0000000000000000
  0.4543414694194311   0.0553665338532900   0.0000000000000000
  0.4438615277983380   0.0559167464857066   0.0000000000000000
  0.4335966445555638   0.0564277439227250   0.0000000000000000
  0.4235422171719039   0.0569005367499369   0.0000000000000000
  0.4136931783754329   0.0573360485787389   0.0000000000000000
  0.4040479201781875   0.0577350333573017   0.0000000000000000
  0.3946007843384192   0.0580984587592611   0.0000000000000000
  0.3853459130056055   0.0584273588583778   0.0000000000000000
  0.3762828394437238   0.0587225582688298   0.0000000000000000
  0.3674052759622001   0.0589850521268143   0.0000000000000000
  0.3587104110044708   0.0592156767487264   0.0000000000000000
  0.3501952433465900   0.0594152538281565   0.0000000000000000
  0.3418548081050912   0.0595846279097528   0.0000000000000000
  0.3336858663230149   0.0597246577421592   0.0000000000000000
  0.3256868701986138   0.0598362486465025   0.0000000000000000
  0.3178507769372301   0.0599203474438374   0.0000000000000000
  0.3101776523444911   0.0599777679649948   0.0000000000000000
  0.3026620994593082   0.0600092896252224   0.0000000000000000
  0.2953022098091474   0.0600156089816429   0.0000000000000000
  0.2880942515540157   0.0599974067416477   0.0000000000000000
  0.2810344582773878   0.0599553507162620   0.0000000000000000
  0.2741224198462300   0.0598902308958287   0.0000000000000000
  0.2673508102792782   0.0598027829062179   0.0000000000000000
  0.2607208372897423   0.0596938009430880   0.0000000000000000
  0.2542268737219818   0.0595639532054747   0.0000000000000000
  0.2478699323930078   0.0594139942796022   0.0000000000000000
  0.2416426526986943   0.0592444560641495   0.0000000000000000
  0.2355443386744786   0.0590559928562533   0.0000000000000000
  0.2295742285057687   0.0588492600763349   0.0000000000000000
  0.2237267309732288   0.0586247739586633   0.0000000000000000
  0.2180011540540604   0.0583832555000465   0.0000000000000000
  0.2123936096745636   0.0581252700988444   0.0000000000000000
  0.2069018249031851   0.0578514118247249   0.0000000000000000
  0.2015265925874962   0.0575624139311738   0.0000000000000000
  0.1962639217171782   0.0572587327640815   0.0000000000000000
  0.1911098627978642   0.0569407701058159   0.0000000000000000
  0.1860635373512509   0.0566090833477142   0.0000000000000000
  0.1811225555455632   0.0562641183158228   0.0000000000000000
  0.1762831066659017   0.0559062017034564   0.0000000000000000
  0.1715472965099615   0.0555361405439852   0.0000000000000000
  0.1669099315072494   0.0551541804881659   0.0000000000000000
  0.1623702175183220   0.0547608759938091   0.0000000000000000
  0.1579259317985442   0.0543566416724963   0.0000000000000000
  0.1535748664842349   0.0539418626674859   0.0000000000000000
  0.1493147619729656   0.0535168899310313   0.0000000000000000
  0.1451447283274916   0.0530821904592715   0.0000000000000000
  0.1410625235604109   0.0526380756497570   0.0000000000000000
  0.1370659530359299   0.0521848322503466   0.0000000000000000
  0.1331567814638518   0.0517231967360234   0.0000000000000000
  0.1293276562313525   0.0512528455259629   0.0000000000000000
  0.1255804504092525   0.0507745502773552   0.0000000000000000
  0.1219131281255899   0.0502885988465475   0.0000000000000000
  0.1183237015509818   0.0497952534010120   0.0000000000000000
  0.1148102318092792   0.0492947513229479   0.0000000000000000
  0.1113720175725520   0.0487874812015910   0.0000000000000000
  0.1080070759532941   0.0482736140267307   0.0000000000000000
  0.1047146335147149   0.0477534816268928   0.0000000000000000
  0.1014927513745349   0.0472272179600503   0.0000000000000000
  0.0983395479756496   0.0466949369878610   0.0000000000000000
  0.0952554508934213   0.0461571322873805   0.0000000000000000
  0.0922363866432952   0.0456135046927440   0.0000000000000000
  0.0892828700951544   0.0450645654218522   0.0000000000000000
  0.0863942718297865   0.0445106297655928   0.0000000000000000
  0.0835678320075330   0.0439515803137779   0.0000000000000000
  0.0808019575920066   0.0433874837688950   0.0000000000000000
  0.0780971710598979   0.0428188278852694   0.0000000000000000
[...]
POINT_DATA 6176
SCALARS continuity float
LOOKUP_TABLE default
-0.006104609575505267
0.0001652623198768676
0.0013873103753169122
0.0009049955061214463
0.00043290717113481835
0.0001675078323859912
-4.940321669117261e-05
-0.00016849734135585895
-0.0002805854821717513
-0.0003751525875474261
-0.00048753028974519893
-0.0006279828937710234
-0.0007672549320748568
-0.0008995241552915671
-0.0010103220779900594
-0.0010845183755319942
-0.0011315282551574222
-0.0011828831987985295
-0.0012399512638396407
-0.0013547461380332452
-0.0014309016389244533
-0.0015069989757785394
-0.0015688563903546845
-0.0015772446189635432
-0.0015641234307944318
-0.0015582272085773322
-0.0015549843803381838
-0.0015350221434287663
-0.001520796325171668
-0.0015107755865128732
-0.0015040710786332618
-0.001489033364920624
-0.0014540915476779883
-0.0013909378643115135
-0.0012986125338829654
-0.0012038056368506881
-0.0011217612977673578
-0.001051014261079427
-0.0009990166909799717
-0.0009639239391527852
-0.0009251362728681879
-0.0008681240169151654
-0.0007848512311208355
-0.0006774479663291051
-0.0005744873702619839
-0.0004933895770830213
-0.0004385876926630078
-0.0004062172158389924
-0.00035960356976362127
-0.0002730948386623225
-0.0001474767054105343
2.4342123359469725e-06
0.00015111178085997607
0.00027839424182078644
0.00037273578814861925
0.0004422023546368428
0.0005229362735205326
0.0006492713725937601
0.0008219136592118066
0.0010256543947764621
0.0012424667122672302
0.001433994708094048
0.0015807768271930882
0.0017043988639129874
0.0018459380157533716
0.002015780028680529
0.0021930576677863084
0.0023663592698509434
0.0025535213570621303
0.002778090836884714
0.0030359657659504487
0.003282633101300685
0.0034893509359586296
0.0036732293680481203
0.0038777084815433266
0.004115310752968282
0.0043692871220698025
0.004618823233220969
0.004854845690079973
0.0050727528620877
0.005274696727872927
0.005471899488013139
0.005667501446676005
0.005818808932362838
0.005905313940803598
0.006234907034646548
0.006958411151948004
0.0074228663093307955
0.007759744377738386
0.008032818682044706
0.008274260524837535
0.008489318238224587
0.008675690720029924
0.008831339336205802
0.008956312187894314
0.009042901318211618
0.009079823731455038
0.009060547029258488
0.008988083975044686
0.008867990901975221
0.008703481014616299
0.00848786007542113
0.008218220537528164
0.007894259339476819
0.00752064565717523
0.0070961493774915705
0.006626585448201077
0.006125159572957942
0.0055976724329131
0.00505616845320869
0.004518804989838783
0.003994877321791472
0.003489007013292432
0.0030008057788752348
0.002527284919287398
0.0020782119924157042
0.0016678749300222731
0.0012622652240579604
0.0008298347613374564
0.00039627081435135685
2.0756101653357355e-05
-0.00029493250733529495
-0.0005849725244114501
-0.0008774089313264776
-0.0011526691026141358
-0.0013617369289745402
-0.0015354520131015568
-0.0018366718713896343
-0.002315990992739931
-0.002755676073394661
-0.0030439271422354574
-0.0031950926889589464
-0.0033322190573664917
-0.0034183985101311648
-0.0033733121896988784
-0.0034183722865006165
-0.00399432623405026
-0.004407594822741251
-0.004361660217278515
-0.004348778334634505
-0.004402255342367731
-0.004449558409138734
-0.004436588583167649
-0.004203974468113223
-0.0036956952650178967
-0.0038139223915114205
-0.004420152422978585
-0.004641430552750316
-0.00435298082299029
-0.0041066241584663665
-0.0039495631716995536
-0.0036128394568928
-0.0031205861887154324
-0.0028591191623789764
-0.003094039663069357
-0.0032547449198717603
-0.003223380413767658
-0.0032272566679845253
-0.002742465935057395
-0.002407972736348959
-0.0023866272202357946
-0.0020702541287459337
-0.0015535347162342864
-0.0018768902689117713
-0.002365699734145285
-0.0020613273247649328
-0.0019598361149301955
-0.0016256943902052757
-0.0015309780616459912
-0.0014228650871613464
-0.0019120319214725274
-0.0006217579129604835
-0.0005654157424447938
-0.00015092025665152883
-0.0002436931971850883
0.00023449518601629285
0.00035159350704689474
0.0016226105889033515
0.0003733481663833708
0.0017855404829297497
0.0007358321260001776
0.0018956727935951834
0.0011421856026552963
0.0025173999331783983
0.0017072318971610677
0.0030037866856406697
0.0022599197384729126
0.0035198933119665187
0.002721339795701868
0.003796630635197187
0.0029434815511751194
0.0034448201307173917
0.004321503988424867
0.004484101953968202
0.004664576350643222
0.004747648062469609
0.005152122911739454
0.005332186518869256
0.005723905608304337
0.006016296901867031
0.006444629664414199
0.006721448350679231
0.006778538224317165
0.006891858735366857
0.006441072342517749
0.007456283101075942
0.0065464070407753394
0.0066731964514274685
0.007067250575802159
0.007417826605899163
0.007722861372821512
0.007865841109840252
0.00796615970437749
0.007938550485982973
0.007753603596799211
0.007687219823450258
0.008107002221651572
0.006702598942812794
0.008422281006304027
0.008488712737190159
0.008275498086771695
0.008014073277932417
0.007593685084202433
0.007100512315196202
0.006601115801238281
0.0057606160341214995
0.00561147622576056
0.005598505432310644
0.00482281321103317
0.0054666595082740145
0.0037576679850667752
0.004000640943939638
0.0025774591869162826
0.004016682665094971
0.0021101346368525343
0.003315056965036166
0.001908417218339729
0.003139754539352099
0.0017544509375294773
0.0029045291080004505
0.0016369777872295836
0.002835100520287044
0.0014099002554475422
0.002182275723777894
0.001109194642028574
0.0020702945314757856
0.0010435732122514993
0.002081545891429816
0.0010586966192664754
0.0006918533801088076
-8.28064649551853e-05
0.0003610157472797251
-0.0009319325556022823
-0.0006681962656629141
-0.0010226236060177777
-0.0010815059321614487
-0.0013962933045858757
-0.0014455330106822478
-0.00156304834225138
-0.0010373096606664967
-0.000692937743570378
-0.0009039499875136688
-0.0009188997157060549
-0.0008685102186814974
-0.0012323929645830373
-0.0017112615580591117
-0.0017266403880608094
-0.001772272134096309
-0.002010324278922458
-0.0016975831505832272
-0.0014184773297705325
-0.0019867354354690466
-0.0023268896657838117
-0.00244108273513952
-0.002702313542523268
-0.0025543772987019556
-0.002041124383284578
-0.0019444435846514133
-0.002148490392983644
-0.002560736345428468
-0.0027882899954341854
-0.0028429445856296216
-0.002817537711777629
-0.002794628816386787
-0.002853505914687917
-0.002836131713683343
-0.0024650350504293868
-0.0020011090858569557
-0.0016841974301006672
-0.0017789028180191192
-0.0019462282334768552
-0.0019835736196358034
-0.0019569896554569393
-0.001890407863350974
-0.0016639349369321974
-0.0012669110960999395
-0.0008257283407214177
-0.0005667893867651791
-0.0004541123413878899
-0.0003307247519523109
-0.0001582265486556517
2.3814602098940217e-05
0.00023869090658603967
0.0005208574942469252
0.0008596032797666482
0.0011798321715150403
0.0014475865526622556
0.0016955087002927056
0.0019604067207253362
0.0022291441404112783
0.0024965762970972478
0.0027657468660500528
0.003047529889113486
0.0033599916817563962
0.003703246955299191
0.004060862257012486
0.004405847565932896
0.004730812723492182
0.005039468792742062
0.005326509237288093
0.005581374991000772
0.005801801392698026
0.005993497632013712
0.006162959371635216
0.006312427422996523
0.006448240256794659
0.006569575512160935
0.00668476836379734
0.0067960744533085435
0.006912544013476998
0.007031698388235351
0.007144407110177199
0.007239214170340307
0.007307319922467717
0.007347606389085787
0.00734767294256315
0.007278853608213228
0.007095727496544811
0.00673041576482263
0.00669236267761623
0.006804873819305742
0.006819601962997874
0.006759985710910509
0.006666265344987206
0.0065362791737943035
0.0063577898043483665
0.006143455635675019
0.005901368035593179
0.005640382980511648
0.005391364408467198
0.0051720128158252434
0.004952872144987871
0.004683257170542222
0.0043795894587648305
0.004084651849375514
0.003807840891570476
0.003525342624512703
0.0032299046947922546
0.0029521633896362307
0.002724694632680466
0.002515220709450143
0.002274098903600838
0.001991119324608228
0.0016954517883853617
0.0014302830388577454
0.0012210115396383728
0.001083727736105262
0.0010121366620298587
0.0009449331996405386
0.0008339889278251723
0.0006947294027751854
0.0005749060956066165
0.0004905252660141011
0.00042824230432191924
0.0003872683562507818
0.0003776567224947075
0.00040853101724300044
0.00044106403072306105
0.0004318197061155066
0.00037667288523307585
0.00030566930192436794
0.0002534009923231111
0.000228176143917549
0.00022052607058493993
0.0002265283950748017
0.0002500249046628163
0.000266174130291169
0.0002455223239836222
0.00018540926053738365
0.00010824899049413717
2.1262044841497436e-05
-5.6078368290789264e-05
-0.00011563521392061256
-0.0001748708335135991
-0.0002464841569716889
-0.0003411523113329709
-0.00046139709429214484
-0.0005681406630853747
-0.000646188652277673
-0.0007518497715656973
-0.000811422467532322
-0.0008400611489733889
-0.0008528702701376524
-0.0008514098301130681
-0.0008511853691928673
-0.0007913290395693051
-0.0007881243767612825
-0.0007285090834358907
-0.0006635892306605072
-0.0005386434372402224
-0.00041193869928822936
-0.0002565192008950658
-0.00010016868715399959
5.31806266685903e-05
0.00017779721185844433
0.0002751656256038573
0.0003755867495261426
0.0004397146326945423
0.0005316039143038544
0.000540452395117642
0.0005712564215177217
0.000985590373346251
-5.978645509730157e-07
0.00015127280222799276
-0.0004995588550132014
0.00038721460977281035
0.002244301351165137
0.004243679406892333
0.0030090234820761763
0.0015938075189991937
0.0011974809416955942
0.008613703299837457
0.0011656329424699749
0.006696323081893051
0.000734451402854326
0.009245228205331092
0.00039194908225452177
0.007707051304134861
0.00016971877492414958
0.00813596494595518
-4.564490791745541e-05
0.0075992411481638905
-0.00013632432115124872
0.0013227664231157347
-0.0002463605804490194
0.007994538835933622
-0.00036187400054514687
0.007657844142578111
-0.0004813862491901415
0.007642612775837286
-0.0006353205441498147
0.011129731087091864
-0.0007851931771389953
0.008580948635565354
-0.0009094384779464951
0.007230589621091975
-0.001014143089837819
0.007143940720974093
-0.0010685156011932954
0.0018110527254896981
-0.0011207567752132917
0.008464851240391832
-0.0011804607678851911
0.006726021521632886
-0.00126601619330752
0.006574669140072817
-0.0013562404819747749
0.006245758647549699
-0.0014443177766502082
0.008715413660935726
-0.0015205447360126434
0.006283990111383552
-0.0015722275655799885
0.006842507207556207
-0.0015645135522347874
0.0018647072996937058
-0.00156714694335384
0.007759062854234699
-0.0015530406635723062
0.005807457594061354
-0.0015552937364697909
0.006610157633912061
-0.0015236418368781111
0.010983942330363825
-0.001513594023769921
0.007984610220871005
-0.001506798555172575
0.005446462929451792
-0.0014988994745386388
0.0060905622974747825
-0.0014782135468835095
0.0016726091181532299
-0.0014354087026598604
0.007040806152275451
-0.0013647912765169913
0.005090089281485936
-0.0012731527388448194
0.005408813578123365
-0.0011799751420367515
0.007965878941696461
-0.00109164294956828
0.006555302260876571
-0.0010173345534187598
0.004721672948395522
-0.0009702864029058986
0.005142395210994867
-0.0009338005886601862
0.001351010146520237
-0.0008898994782235826
0.0063148380951713505
-0.000828082823451187
0.004361790343047165
-0.0007402686165436897
0.004688578047738581
-0.0006346310560434211
0.01086816747731957
-0.0005329407111691593
0.006318148263049581
-0.00045461898852717657
0.004121808482295694
-0.0004085627358942454
0.004441411060897317
-0.00037377323545106445
0.0006815063587078326
-0.00031427643628888056
0.006016012594551089
-0.00021721803014853398
0.003877531338741839
-8.521460676808559e-05
0.004872494014193755
6.469337727590718e-05
0.006682783364973762
0.00020867702234102936
0.005790824077367468
0.00032933339094528847
0.003589178523594047
0.00041298861969089635
0.004280039748975029
0.00048087264783227375
0.0005201181934497335
0.0005758077809758069
0.005343854731789354
0.0007162168161020593
0.003180138118916924
0.0008971274259369043
0.003576300385633829
0.0011091595358180707
0.010424719271683088
0.0013220735809655936
0.0050165179362201984
0.001500896965383947
0.0028895701100933513
0.0016371431989701238
0.0035277193051111012
0.0017642735953596988
0.0003164654615106467
0.0019152329865929115
0.004455752036062322
0.0020893765232140146
0.002656929120347427
0.002265938015275899
0.003356518130944895
0.0024438820882638707
0.006175925844121135
0.0026468914303972883
0.0047160111701049804
0.0028876524141459485
0.0025415408638276606
0.003146602437878289
0.0027944697855407617
0.0033812192401217974
0.0001633711654534294
0.0035736906052912395
0.004014291817170207
0.003759006585920136
0.0023587167935018743
0.003976415229329822
0.0021759782158673954
0.004226651247030732
0.009996885458616843
0.0044856757357424094
0.003331260026134311
0.004739348427247592
0.00218724838266894
0.004976037009630121
0.0021539434312134735
0.005187654472681937
-0.00038429263739107444
0.005384297118892543
0.0027800357385537157
0.005583646536273042
0.0021468348760765006
0.0057809444088945654
0.0020453177153839917
0.005932455619046464
0.007132230197950225
0.006009547263347683
0.0019653805390057485
0.006416559579686243
0.001972215499600665
0.007054100710647604
0.001397196381048223
0.007552836117315819
1.2011102875251535e-05
0.00790225672520642
0.0015382720319698302
0.00818374274972563
0.0019180424547633745
0.00843140590405054
0.0014937203513319872
0.008654773887030412
0.009518931212935068
0.008849832324992674
0.0009360006014245781
0.009015847621097773
0.001643861998008259
0.009151596212581152
0.0008023867508545635
0.009251713365054327
0.0013360110832948198
0.009300929928627995
0.0010658037180187397
0.00929492477994226
0.0012201892404941634
0.009233526880498518
0.0017068349544627443
0.009126644583801559
0.007941366639531992
0.008973564254869303
0.0014048545800271783
0.008768497113439336
0.000854847891893318
0.00851116158391192
0.0011683049557228088
0.008205643560664824
-8.671695206595457e-05
0.007851361976856498
0.0006275658772180151
0.007445717011051579
0.0007191174763943088
0.006988218610773083
0.00044890298443539355
0.006494426807854891
0.002904519470522223
0.005981990510777559
0.0001736441617075831
0.005454783234206476
0.0007337244100541192
0.004922628337444756
-0.0004064606154392035
0.004403801162328802
0.0003445697563605429
0.003908278825722133
-0.0006725256038146122
0.0034438135692362705
0.0009870901221270627
0.0029936251556850445
-0.000984147944633414
0.0025590409088521848
0.007167878863444873
0.0021459876643899357
-0.0007064915019812379
0.0017503246594176812
0.000867724072710022
0.0013537487485009857
-4.7881359846451e-05
0.0009431807368364107
-0.00014345769937796298
0.0005728120259987276
-0.000236814458828532
0.0002610121500023244
0.001020399195179083
6.745948044182916e-06
-0.0007000452880656799
-0.00023925923006763993
0.009154551633833656
-0.00047529995336198744
-0.0006545644284920528
-0.0006815129712006435
0.0010057542078734552
-0.0008721793228521555
-0.0010112597912278506
-0.0011389051226465715
0.0002787807673284614
-0.0015899753628030758
-0.0011667824734938952
-0.001974691281048842
0.0003021056170134821
-0.002249274668436935
-0.0012257788420496785
-0.002371487903781706
0.006943623424213339
-0.002449921721983526
-0.0013184177846927803
-0.0024958124907734844
0.00032000744102362227
-0.002494017743896026
-0.0015165423811519352
-0.00256166687813973
0.000992918816068484
-0.0029689204612985535
-0.0011849103928050122
-0.003332040095112748
0.0004628943866237564
-0.003338642997575294
-0.0008080367074716166
-0.003255514755851977
0.008705295894662866
-0.003228110286936681
-0.0008771219113810769
-0.003199688103523148
0.0004986688786508982
-0.003105045741666821
-0.0007592024708214429
-0.002831898832320303
0.0006587859792043197
-0.002757411217020353
-0.0008439218780902637
-0.0026435388530467287
0.0006416202037166862
-0.002994658486006194
-0.0008143162805276558
-0.0033221164864897157
0.009362485979478644
-0.0031587044471306134
-0.0008063301799669886
-0.002818883469427293
0.00120158011124184
-0.0025513939585613534
-0.0006575282663565156
-0.0020876145355528727
0.0007388014243638215
-0.0017312006201201774
-0.0004287771388255728
-0.001890250822694083
0.0009401672179386602
-0.0017084822775317193
7.820448816371715e-06
-0.0016733524043976832
0.008239859707445465
-0.0012405402154640672
0.00038978163298809663
-0.0017813625592076794
0.0010382094180129424
-0.0015010552531272729
0.0005763324949753513
-0.0011520126329696819
0.0030265063659051144
-0.0008747811350331371
0.0006947095928067488
-0.0005053480116040817
0.001315838084116683
-0.0004397158994618279
0.0008884952927480775
-0.0004969760570186915
0.007406033369384532
-0.0005446932987152646
0.001095704110901102
-0.00032513216328708926
0.002003745735816109
-0.0006227538337476852
0.0012819265982180641
2.5502582568142938e-05
0.0016295256838267816
-0.0002583712305155966
0.0014576717981354594
0.0002996903470319256
0.0009153155499453452
0.000800003260941731
0.001746976585047389
0.0008335193280017267
0.008009652882484581
0.0012811790210415564
0.0020569075620958804
0.0011562311192866782
0.0011249221329471687
0.0014157376281232347
0.002453692694291331
0.0014123605810877008
0.006536056537776442
0.001704576117266129
0.0027851931732211883
0.0020846671217976767
0.0009682888031115736
0.0019964867766721324
0.0031411784747024866
0.0021852176761363914
0.008321018815742003
0.0022501089587462124
0.0035254277407090555
0.0023820715487794606
0.0018940889817694606
0.002696456151596593
0.003925029592597281
0.003109263361072664
0.002038121927381166
0.0032663787602654525
0.004334886069669697
0.0036044966421264037
0.001987542170362852
0.003840183374430904
0.004761560588664772
0.004020208617567056
0.007799016001571484
0.004318642350914629
0.00522796918725342
0.004661168778681557
0.00203571556021629
0.004919817034491107
0.005710586411136559
0.005285913450983995
0.0028776892258969614
0.005551566615641034
0.006200367068467498
0.006252936217582502
0.0023436013200478036
0.006030712001534862
0.006686280418793388
0.006842250108772477
0.007729643299764732
0.006874500490543446
0.007179956964391213
0.00782615840149237
0.0030576830226413092
0.00791649489221822
0.007664714965070086
0.009025848322343683
0.0006674006809996813
0.009233824608839604
0.008107978618647852
0.009979515336272038
0.0038345013998158416
0.009902343940709782
0.008495207236060268
0.009600821195361039
0.007484891670141436
0.009156698156034614
0.008831797033974268
0.008404333915330298
0.0025278494766908517
0.00838810849179091
0.009126697886009663
0.008062830052586609
0.00022846271489043442
0.007809340049687206
0.009364801993651308
0.007992277064748511
0.003025745821332182
0.008468955618776858
0.009548324164222912
0.007949937912130452
0.007332523977061375
0.008201466889224553
0.009680588878174185
0.008386429744939567
0.0017113995170757092
0.008840971836380902
0.009776269546495037
0.00926735159910668
0.0012392975473739974
0.009631876314078107
0.009827504750647576
0.010110241862782749
0.002699772281010433
0.010935420716838628
0.009825735000162567
0.01185077585149784
0.007270035838004053
0.01220479784890895
0.009762362625208793
0.012049602716212904
0.0025852943035647754
0.011040292990286589
0.009649585555741184
0.010592942505308092
0.0014117108190810181
0.009219081122319617
0.00950212879043389
0.008670194149374802
0.002503192734200422
0.007965152281170675
0.009325363295383204
0.0074416104823008065
0.007644320281383434
0.006929810354282501
0.009120715563715796
0.006617087077025698
0.0026344876931859744
0.00584851154785268
0.008888534734472844
0.005072715640664855
0.0004655089549965504
0.0050254073949970324
0.008633263357093244
0.004182772756233355
-0.0007399542512144539
0.004024202233436812
0.008349741092771222
0.003553382414672581
0.006522338761812188
0.0036210233455030937
0.008003603749324299
0.003318779518107259
0.003502416088568703
0.0033523562705308663
0.007513572453722717
0.003055166379547789
0.0016800425968219507
0.0031288297797166693
0.007018392568360578
0.003057409161135921
-0.004258071583424841