# vtk DataFile Version 1.0
GRUMMP topologically 2D mesh
ASCII

DATASET UNSTRUCTURED_GRID
POINTS 6176 float
  1.0000000000000000   0.0000000000000000   0.0000000000000000
  0.9979736161243241   0.0002872981906159   0.0000000000000000
  0.9959038003591104   0.0005818082753016   0.0000000000000000
  0.9937894604158818   0.0008826109490225   0.0000000000000000
  0.9916311447855282   0.0011889740049165   0.0000000000000000
  0.9894256878168368   0.0015011074645448   0.0000000000000000
  0.9871732566523234   0.0018189104108560   0.0000000000000000
  0.9848739492731372   0.0021423104928037   0.0000000000000000
  0.9825241245750710   0.0024717658271048   0.0000000000000000
  0.9801244133260449   0.0028071825305054   0.0000000000000000
  0.9776732769852096   0.0031487906039340   0.0000000000000000
  0.9751690039483889   0.0034968357351786   0.0000000000000000
  0.9726117072730877   0.0038512643819321   0.0000000000000000
  0.9700001180350898   0.0042121148976419   0.0000000000000000
  0.9673332227148538   0.0045793859121594   0.0000000000000000
  0.9646079236541195   0.0049533708962095   0.0000000000000000
  0.9618249648196705   0.0053338679490647   0.0000000000000000
  0.9589807878895711   0.0057213439443832   0.0000000000000000
  0.9560767311296049   0.0061156062701256   0.0000000000000000
  0.9531120216710255   0.0065167463399167   0.0000000000000000
  0.9500819018783057   0.0069253778138591   0.0000000000000000
  0.9469876484068450   0.0073412143029309   0.0000000000000000
  0.9438286210030068   0.0077641908681895   0.0000000000000000
  0.9406001269296587   0.0081947829660712   0.0000000000000000
  0.9373041277084813   0.0086325757434285   0.0000000000000000
  0.9339368121646437   0.0090779560824189   0.0000000000000000
  0.9304976431076690   0.0095309377793780   0.0000000000000000
  0.9269838874379289   0.0099918267186165   0.0000000000000000
  0.9233965242394278   0.0104604374002928   0.0000000000000000
  0.9197323684717913   0.0109371203977286   0.0000000000000000
  0.9159901296799260   0.0114219111797446   0.0000000000000000
  0.9121662515702946   0.0119150917142392   0.0000000000000000
  0.9082612640703632   0.0124164093968364   0.0000000000000000
  0.9042711890176098   0.0129261849544228   0.0000000000000000
  0.9001985925103467   0.0134439182275261   0.0000000000000000
  0.8960367883853674   0.0139703538547480   0.0000000000000000
  0.8917881131106570   0.0145051006126241   0.0000000000000000
  0.8874465968544013   0.0150488093430172   0.0000000000000000
  0.8830132689405343   0.0156012428338051   0.0000000000000000
  0.8784843643309772   0.0161627200549514   0.0000000000000000
  0.8738585592690924   0.0167332093564690   0.0000000000000000
  0.8691331845657406   0.0173128340473851   0.0000000000000000
  0.8643080629784704   0.0179014022230632   0.0000000000000000
  0.8593790220315882   0.0184992057974382   0.0000000000000000
  0.8543443022105112   0.0191062525475961   0.0000000000000000
  0.8492020742372332   0.0197225542022908   0.0000000000000000
  0.8439504592998461   0.0203481184762133   0.0000000000000000
  0.8385847225217766   0.0209832807547837   0.0000000000000000
  0.8331043690503205   0.0216278714070098   0.0000000000000000
  0.8275075883744546   0.0222818740978654   0.0000000000000000
  0.8217896079901662   0.0229456038551552   0.0000000000000000
  0.8159499389768221   0.0236188617887649   0.0000000000000000
  0.8099850870934132   0.0243017702717010   0.0000000000000000
  0.8038929332928342   0.0249942623102002   0.0000000000000000
  0.7976697970229181   0.0256964297179088   0.0000000000000000
  0.7913134730328051   0.0264081777898121   0.0000000000000000
  0.7848218596203610   0.0271293903098903   0.0000000000000000
  0.7781898173908960   0.0278602762976724   0.0000000000000000
  0.7714169256365310   0.0286005013921829   0.0000000000000000
  0.7644979701754163   0.0293502351726533   0.0000000000000000
  0.7574308659438134   0.0301093068082177   0.0000000000000000
  0.7502135053150701   0.0308775557618342   0.0000000000000000
  0.7428404612557281   0.0316551512399728   0.0000000000000000
  0.7353096164115749   0.0324418730798164   0.0000000000000000
  0.7276172963491144   0.0332375368705936   0.0000000000000000
  0.7197598859172740   0.0340418579688506   0.0000000000000000
  0.7117355290536627   0.0348543282856948   0.0000000000000000
  0.7035389878799579   0.0356747811793425   0.0000000000000000
  0.6951650952820780   0.0365031090698871   0.0000000000000000
  0.6866122709923126   0.0373388258653197   0.0000000000000000
  0.6778754950330185   0.0381817369178559   0.0000000000000000
  0.6689534383202176   0.0390312029136988   0.0000000000000000
  0.6598376964403885   0.0398871771799410   0.0000000000000000
  0.6505290121117546   0.0407486821288951   0.0000000000000000
  0.6410191910005383   0.0416153892989160   0.0000000000000000
  0.6313056496470314   0.0424862165552765   0.0000000000000000
  0.6213823079172336   0.0433602824420315   0.0000000000000000
  0.6112489281649386   0.0442362457646169   0.0000000000000000
  0.6008963123926909   0.0451137308907019   0.0000000000000000
  0.5903211292528141   0.0459917803130241   0.0000000000000000
  0.5795184839365645   0.0468692540951747   0.0000000000000000
  0.5684857150099230   0.0477443424041717   0.0000000000000000
  0.5572148862675538   0.0486154402631608   0.0000000000000000
  0.5457024491672809   0.0494805599680832   0.0000000000000000
  0.5339780836677636   0.0503353194116202   0.0000000000000000
  0.5219860728183490   0.0511813660693644   0.0000000000000000
  0.5101253307512127   0.0519891081313360   0.0000000000000000
  0.4985043971600128   0.0527514649709832   0.0000000000000000
  0.4871181100865982   0.0534694955937708   0.0000000000000000
  0.4759663238182478   0.0541439373921026   0.0000000000000000
  0.4650424897306392   0.0547759224024376   0.0000000000000000
  0.4543414694194311   0.0553665338532900   0.0000000000000000
  0.4438615277983380   0.0559167464857066   0.0000000000000000
  0.4335966445555638   0.0564277439227250   0.0000000000000000
  0.4235422171719039   0.0569005367499369   0.0000000000000000
  0.4136931783754329   0.0573360485787389   0.0000000000000000
  0.4040479201781875   0.0577350333573017   0.0000000000000000
  0.3946007843384192   0.0580984587592611   0.0000000000000000
  0.3853459130056055   0.0584273588583778   0.0000000000000000
  0.3762828394437238   0.0587225582688298   0.0000000000000000
  0.3674052759622001   0.0589850521268143   0.0000000000000000
  0.3587104110044708   0.0592156767487264   0.0000000000000000
  0.3501952433465900   0.0594152538281565   0.0000000000000000
  0.3418548081050912   0.0595846279097528   0.0000000000000000
  0.3336858663230149   0.0597246577421592   0.0000000000000000
  0.3256868701986138   0.0598362486465025   0.0000000000000000
  0.3178507769372301   0.0599203474438374   0.0000000000000000
  0.3101776523444911   0.0599777679649948   0.0000000000000000
  0.3026620994593082   0.0600092896252224   0.0000000000000000
  0.2953022098091474   0.0600156089816429   0.0000000000000000
  0.2880942515540157   0.0599974067416477   0.0000000000000000
  0.2810344582773878   0.0599553507162620   0.0000000000000000
  0.2741224198462300   0.0598902308958287   0.0000000000000000
  0.2673508102792782   0.0598027829062179   0.0000000000000000
  0.2607208372897423   0.0596938009430880   0.0000000000000000
  0.2542268737219818   0.0595639532054747   0.0000000000000000
  0.2478699323930078   0.0594139942796022   0.0000000000000000
  0.2416426526986943   0.0592444560641495   0.0000000000000000
  0.2355443386744786   0.0590559928562533   0.0000000000000000
  0.2295742285057687   0.0588492600763349   0.0000000000000000
  0.2237267309732288   0.0586247739586633   0.0000000000000000
  0.2180011540540604   0.0583832555000465   0.0000000000000000
  0.2123936096745636   0.0581252700988444   0.0000000000000000
  0.2069018249031851   0.0578514118247249   0.0000000000000000
  0.2015265925874962   0.0575624139311738   0.0000000000000000
  0.1962639217171782   0.0572587327640815   0.0000000000000000
  0.1911098627978642   0.0569407701058159   0.0000000000000000
  0.1860635373512509   0.0566090833477142   0.0000000000000000
  0.1811225555455632   0.0562641183158228   0.0000000000000000
  0.1762831066659017   0.0559062017034564   0.0000000000000000
  0.1715472965099615   0.0555361405439852   0.0000000000000000
  0.1669099315072494   0.0551541804881659   0.0000000000000000
  0.1623702175183220   0.0547608759938091   0.0000000000000000
  0.1579259317985442   0.0543566416724963   0.0000000000000000
  0.1535748664842349   0.0539418626674859   0.0000000000000000
  0.1493147619729656   0.0535168899310313   0.0000000000000000
  0.1451447283274916   0.0530821904592715   0.0000000000000000
  0.1410625235604109   0.0526380756497570   0.0000000000000000
  0.1370659530359299   0.0521848322503466   0.0000000000000000
  0.1331567814638518   0.0517231967360234   0.0000000000000000
  0.1293276562313525   0.0512528455259629   0.0000000000000000
  0.1255804504092525   0.0507745502773552   0.0000000000000000
  0.1219131281255899   0.0502885988465475   0.0000000000000000
  0.1183237015509818   0.0497952534010120   0.0000000000000000
  0.1148102318092792   0.0492947513229479   0.0000000000000000
  0.1113720175725520   0.0487874812015910   0.0000000000000000
  0.1080070759532941   0.0482736140267307   0.0000000000000000
  0.1047146335147149   0.0477534816268928   0.0000000000000000
  0.1014927513745349   0.0472272179600503   0.0000000000000000
  0.0983395479756496   0.0466949369878610   0.0000000000000000
  0.0952554508934213   0.0461571322873805   0.0000000000000000
  0.0922363866432952   0.0456135046927440   0.0000000000000000
  0.0892828700951544   0.0450645654218522   0.0000000000000000
  0.0863942718297865   0.0445106297655928   0.0000000000000000
  0.0835678320075330   0.0439515803137779   0.0000000000000000
  0.0808019575920066   0.0433874837688950   0.0000000000000000
  0.0780971710598979   0.0428188278852694   0.0000000000000000
[...]
POINT_DATA 6176
SCALARS continuity float
LOOKUP_TABLE default
0.0007765074147717091
0.0013496660462384892
0.0014829717806467164
0.0015204589761185572
0.0013963452604552264
0.001355406644527242
0.0013363375537350083
0.0013393856948978916
0.0013536558764518972
0.0013641962047698571
0.001411575462868235
0.0014322085623733303
0.0014681422513945015
0.0015077318304749419
0.001543522394050177
0.0015666365602785644
0.0016246303431917
0.0016784952829408456
0.001743723069514868
0.0017917747537808033
0.0018258913816749094
0.0018602801670092152
0.0018879152804099763
0.0018972191092428438
0.001920775999943112
0.001967419018130522
0.0020202417474596145
0.0020631055981558703
0.0020965774682011073
0.002120646593463962
0.0021416077659778448
0.0021585209678034747
0.0021692903919295183
0.0021720748659080492
0.0021796023433017
0.00220676464722527
0.002244770805045298
0.002286950127962667
0.002314695410457953
0.0023281733603452356
0.002336678507287698
0.0023418683325950084
0.002349089428470849
0.0023734978922264212
0.0024140663784166048
0.0024576688043864824
0.0024890078792908898
0.0025001636873642407
0.0025002588782505036
0.002498785251470022
0.0025018971163023635
0.0025201395572351337
0.002558777020190157
0.0026074929816372033
0.002647793103647473
0.002667041583007027
0.002670443188951752
0.002671901958169953
0.0026785634715207414
0.0026988820291556468
0.0027403638125256835
0.002795576375701653
0.002844591899501916
0.002876183979685026
0.002896904502299927
0.0029180376527902538
0.002941299712368917
0.0029620518682216897
0.002979910138809849
0.0030033708733805016
0.003044924963450074
0.0031041630565163247
0.0031648461838272544
0.0032117585116338875
0.003245561217375099
0.0032771605977399655
0.003313081884995632
0.0033544953013629167
0.0034050264639577713
0.003464931912899845
0.0035260524884586563
0.003579369004072499
0.0036218478947989937
0.0036554298487025084
0.0036662702370686977
0.003563080501648892
0.0035367589750059823
0.0035825606607761376
0.003598153689371462
0.003598350867458751
0.003587459442892834
0.0035556588836316606
0.0035001237812872306
0.003428080551638609
0.0033456655836515193
0.003252687465587106
0.003148916475683088
0.003041152067435621
0.0029362282421092614
0.002826938817473693
0.0026976784657416764
0.002540738579229761
0.0023632691448184128
0.0021786513365078136
0.0019923206858620483
0.0018055344841596997
0.0016253275360020056
0.00146417922319663
0.001319122775424717
0.0011715379286660042
0.0010090136226018841
0.0008379507833678742
0.000675685971804595
0.0005295341071188909
0.00039590683992134576
0.0002755924962798016
0.0001841977621745671
0.00012401529426838724
6.909901837095516e-05
-6.3927376947773e-06
-9.76942212681039e-05
-0.0001832723468143513
-0.0002514641947854279
-0.0003110834273254077
-0.00036710433652017787
-0.0004031706915786834
-0.0003967665311573276
-0.0003842421521698325
-0.00040857077980683984
-0.0004540927977994889
-0.0004989671344425163
-0.0005172687592854381
-0.0005324888007545558
-0.0005402357240885762
-0.000490082107480309
-0.0003957517678785358
-0.0004251916230002428
-0.00047286006963103333
-0.0004328472580485124
-0.0003911285133133856
-0.0003558643724136375
-0.0003278657234721829
-0.0003132577354444502
-0.00025541190858902193
-9.363208290064377e-05
-7.0548370122684e-05
-8.663855544996474e-05
-2.224558257656653e-05
6.219792401229174e-05
0.0001287699551625246
0.00016957164218712098
0.00021470213456712875
0.0002610356971876777
0.000250770283714265
0.00045148743242583953
0.0005196264253140766
0.0006364010738942863
0.0006593095227797514
0.0008234996119684302
0.0009308342874724715
0.0010120524393627346
0.001064742679319143
0.0009468792715078066
0.0011577469709175153
0.0011444843049914014
0.001234886138039907
0.001331450087993284
0.0015022071291779793
0.0016644731550872688
0.001856682146716561
0.0020328243140341575
0.0020759379131948465
0.0020743710481558415
0.0021891037667026866
0.002228906547514631
0.0023986439406081927
0.0024705832816907867
0.0022953543138459083
0.002777681490409219
0.0025639502855305204
0.0031594263368137894
0.0029715975418166353
0.003773877043265403
0.0034555078845280845
0.004203436662931656
0.0037362010375062422
0.004460881932190049
0.0039006572861186276
0.00464385136859885
0.003906318800320557
0.0049377009891721155
0.0048877526661526265
0.004980721020410226
0.00528866781908106
0.005540100733633849
0.005759333429269443
0.005756379861035797
0.005872176061459842
0.005788393152709102
0.005733672443314896
0.005439007217134282
0.005498033276200719
0.005868045826490759
0.006213909463973148
0.004636572230770886
0.004525691872266003
0.004791685285028618
0.004736518148057579
0.004033460038778945
0.003221817760732766
0.0033091942307651207
0.0028477061545315843
0.0020293387003443757
0.001230804495514715
0.0007064508934620306
0.00017340977779025375
-0.0002890050481934696
-0.00044397017895315386
-0.0013352747398770863
-0.001977814455100264
-0.0021944030431783677
-0.0023792781977381417
-0.002695990042771926
-0.003084788442880256
-0.0033053980903308025
-0.003465608447545972
-0.003460792701586692
-0.0034958570588481033
-0.003348484446259978
-0.003492090768032941
-0.0031902698298613636
-0.0033129023173484543
-0.0032148871645370225
-0.00302959404092995
-0.0029960768919567128
-0.0028393204819321047
-0.002744443800720578
-0.0026255726220461165
-0.0024743813830935897
-0.0024126151361231305
-0.0022377268525813226
-0.0022334679393932228
-0.0019430023738360113
-0.0019078486433801753
-0.0016139608241172924
-0.001645018081988495
-0.0013273897099527923
-0.0014406559242014355
-0.0010308167194402447
-0.0009714271764578586
-0.0006978427085845967
-0.0007962207233431131
-0.00041647880764895273
-0.00042706998055873564
-0.000302312968037378
-0.00020019063177314513
-8.347744171697024e-05
4.176310654443153e-05
0.00010663086387966178
6.970520841387674e-05
3.063046000169698e-05
0.00035103305155715476
0.0002972928265304808
0.00035246903710095225
0.0005094593183968491
0.000574784318613431
0.0004716754587177128
0.000548770680380947
0.0007034630380182054
0.0007233926923101886
0.0007411756508484931
0.0011823251876200392
0.0011869394006390266
0.0011713637473177148
0.0011951082584022539
0.0010486828362624783
0.0008742868165652027
0.0009539430097057184
0.0011751740831631443
0.0013645236804057336
0.0014439600079003336
0.0014527317408841894
0.001461886205565427
0.0014799693121829718
0.0015029933044569982
0.0014531531355821614
0.001294208309630396
0.0012169412220044663
0.0012622869685904742
0.0014523790031694586
0.0015674304676979894
0.001564013450211615
0.0015254987859036142
0.0014600608643649802
0.0013293775843100774
0.0011990659334783884
0.0011422572371522764
0.001186187275473927
0.0012388487250112805
0.001217314526898764
0.0011391148419871784
0.001036297868096197
0.0009039996182916028
0.0007598751692390384
0.0006450510770019171
0.0005829487893392504
0.0005420795624677786
0.00046710431452880023
0.00034279470673752766
0.00018977868221641743
1.6929976316407555e-05
-0.00017809498416707643
-0.000398221153732222
-0.0006352441869717203
-0.0008661187989208122
-0.0010753011265135872
-0.0012706881290880103
-0.0014815024875936894
-0.0017235675265897341
-0.0019851790000045308
-0.0022479292420767467
-0.0024968102420821646
-0.0027176126756365718
-0.0029027395684446534
-0.003058574685875169
-0.003200023359057888
-0.003336425777606391
-0.0034651593248219517
-0.0035794506210388736
-0.0036765763517896993
-0.003754928990855773
-0.0038115820313750536
-0.003839882676947036
-0.003835753746721427
-0.0038033237344291056
-0.0037513030031966713
-0.003677190945238131
-0.003565787053697699
-0.003455873342323195
-0.003447079838405402
-0.003412938441432187
-0.0033568229264232387
-0.0032834773826356705
-0.0031892304349774884
-0.0030750851702969974
-0.0029529395328553726
-0.0028384959127633956
-0.002738069207677575
-0.0026524978914775005
-0.0025832354824195805
-0.0025216725200850752
-0.0024470628088064956
-0.00235694045029099
-0.0022737261294563855
-0.002209674027665739
-0.00215592399370377
-0.0021028293573961843
-0.0020517843699991525
-0.002009713365167957
-0.0019720681098102824
-0.0019206212502664132
-0.001847660094719162
-0.0017663618668529084
-0.0016953236485228141
-0.001644133522579141
-0.0016112209046279969
-0.0015910239871647508
-0.001574388704518481
-0.0015448502544738204
-0.001496190015892622
-0.0014462535963203043
-0.001411825192479611
-0.0013884948446648525
-0.001368238509369884
-0.0013504967773304312
-0.0013371222892820942
-0.0013255670308780553
-0.0013061929149582824
-0.0012705929216647732
-0.0012245739789324222
-0.0011834699403913131
-0.001157003642133084
-0.0011418029048194287
-0.0011298047831417722
-0.0011195667624940527
-0.00111003353838955
-0.0010955458420524446
-0.0010697589847407036
-0.001031182211745242
-0.0009892572632429766
-0.0009521655205097761
-0.0009272439282054121
-0.0009060920865469189
-0.00087897496488633
-0.000844608425007644
-0.0007981249776800891
-0.0007416178494407963
-0.0006728949444071889
-0.0006213022144683053
-0.0005750073440068935
-0.0005188943718668144
-0.00045568634056199426
-0.0003888610350660825
-0.0003218016162553575
-0.00025242090897035076
-0.00018714434838605222
-9.11596603329536e-05
-7.907987185104452e-06
8.549740681572279e-05
0.00014299581395698085
0.0001935506869923925
0.00024261123724607898
0.000284261288873823
0.0003002592296761824
0.0003496157197988332
0.00036307742431733773
0.00037286067869917106
0.00037376883150836733
0.000336724829301594
0.00027815999934965093
0.00017033371269043162
0.00018192314873991542
0.0004155834052626257
0.0014585372458232307
0.0004420871364454279
0.000858465551078126
0.0011591929114622688
0.0009197791797444466
0.000611591231551424
0.000823664652105365
0.00166408232315595
0.0024073904786210587
0.0015029441115501148
0.002575345178304449
0.0014189561786007126
0.002173425646597965
0.0013619674416591257
0.00197572125261153
0.0013321386844571334
0.002247032202839343
0.0013533130649308204
0.0025971213317346658
0.0013395559639300368
0.0015240679531635087
0.0013551382808559473
0.0028291791204013957
0.0013771293781497706
0.002114385133609682
0.0013945726523911526
0.004053161782959448
0.001444282129678235
0.00412631535530699
0.0014864099683927355
0.0033757813980050677
0.001523538475525159
0.0020056115858595497
0.0015612194091856066
0.004684184924318585
0.001587482220961018
0.0012747762285283944
0.001636148809071931
0.003900849993598068
0.0016953459346114412
0.0018596729833259302
0.0017519762119982372
0.004967408119368055
0.0018122024272027358
0.0018641667122068135
0.0018529685895567975
0.003995240050230995
0.001886549980717977
0.0017097035965157614
0.0019064060353645273
0.004719995147938073
0.0019226768827512693
0.0012599956825293341
0.001962991373649457
0.003974865341610498
0.0020100098088811852
0.001550844289124848
0.0020600553822612212
0.004358428515983531
0.002097130564635393
0.003994425158731468
0.0021270918137656337
0.0037355934289772658
0.0021518692304006606
0.0014305302799915412
0.0021719773424306783
0.004377531772287506
0.002186479533671568
0.001476474031310334
0.0021942974355578936
0.003849175179508844
0.002196409194642068
0.0013230566392477081
0.0022102143246152802
0.00426450827790837
0.0022378069165490356
0.0021998448533737695
0.0022776435258753855
0.003948291832111579
0.0023159334494073634
0.0012239190391481584
0.002339352921275242
0.004159429900308897
0.0023518345274469543
0.0013820755248153498
0.0023599169136451856
0.0038731864868620514
0.002364361196596241
0.0011374269329238154
0.002377328186623642
0.003979413690919985
0.002407120071799149
0.00391663511670387
0.0024470901703267036
0.003687810831258624
0.002487912143655909
0.0011330190705799458
0.002512476572903384
0.003684924614257275
0.002520590657568236
0.0008212688380771509
0.0025212770778021533
0.0033331460687495732
0.0025199948727273502
0.0011015189804935268
0.002526254592612769
0.002914756033029212
0.002550977725492467
0.0018522769702990285
0.002592839626103401
0.002980430117021558
0.002640134234513797
0.0011123107544343007
0.002673977580432744
0.002635657259072424
0.002688292983125614
0.0003184723563150303
0.002692279260082536
0.00268731869831172
0.0026946619989687685
0.0010059433441768505
0.0027035383155565923
0.0026011206892606773
0.0027298375531986255
0.003684272861462138
0.002776515055266473
0.0024408332255200648
0.0028309646131799877
0.0009281395636617737
0.0028748140192891014
0.002333083486791451
0.00290336844239379
0.00029499105579659465
0.0029255434103719283
0.0022790264699668545
0.0029486218682301156
0.0008278170901495713
0.0029717653749327055
0.00219392371453625
0.0029909793390744004
0.0027158527415817456
0.003008813538812768
0.002268168286700936
0.0030374387468016357
0.0007956112421564289
0.0030860038840368155
0.002238846680759016
0.0031479963418186204
3.456045298634269e-05
0.003205929250080708
0.002274544630034677
0.003248967057745051
0.0007585023600752704
0.003282510970079189
0.001972649632110592
0.003316567084030757
0.0034682796484611237
0.003354140549245236
0.0020364299843753297
0.003398260719926153
0.0007350562686288753
0.0034530672096649362
0.0017523190806754906
0.0035157754707117695
7.415968278125369e-05
0.003577050234021571
0.001799608165163371
0.0036300640580027026
0.0008108690705141536
0.003673629453159595
0.0015354334941072817
0.0037070803780618845
0.0019868632846925913
0.0037129725778942088
0.0014783267515126825
0.00361646367694916
0.0008085350240792559
0.003551076869690438
0.0016492471622694858
0.003603171623421514
0.00011389193244916713
0.003617772530535203
0.0016154731782319657
0.0036171883556304425
0.0008166899622573126
0.0036091644374562477
0.001534302303997195
0.0035826186980717494
0.003211138645090558
0.0035312842539775955
0.0014601768506150596
0.003460842374168816
0.0008366363111545703
0.003379395188569612
0.0014683843141965137
0.0032888992473967564
0.0003169358888109796
0.0031877817121410785
0.00131992622611825
0.0030801385783809916
0.0007598876572420075
0.0029737072591330196
0.0013083621228575466
0.0028662916767036766
0.0021047502182870983
0.002742887928519972
0.0012251893806512445
0.0025925291465971998
0.0007093674939931972
0.0024190053273467197
0.0010608184372867873
0.0022354743750341312
0.00024648161536716207
0.0020512294354219445
0.0010025184406573632
0.0018674132060636135
0.0006510266467250915
0.0016878747166688118
0.0009962633933535095
0.0015233233063609692
-0.00025385605313479556
0.001377338447830365
0.0009411815768499865
0.0012344347492460653
0.0006573580083669899
0.001078453268420419
0.0008212137080742451
0.0009129012283231197
-0.00012169616203055122
0.0007519489370677221
0.0007914898861599448
0.0006080577827287796
0.0007762430222900993
0.00047885758533498145
0.0007654708315389237
0.00036321575395478555
0.00518176173716883
0.0002692715301632794
0.0007530114506165597
0.0002066864012548102
0.0007819701957457125
0.00015749908900979532
0.0007787640089949561
9.106508896930524e-05
9.028796154386147e-05
1.0524747790113397e-05
0.0006622176335422746
-7.012472028249675e-05
0.0006973140612261056
-0.00013286834616119936
0.0006217459750764612
-0.00018541593991027542
0.003031290161228002
-0.00023125472535633749
0.0005919505869595843
-0.00026262572212728196
0.0007676357915947982
-0.0002572281699999672
0.0004422574071191504
-0.00023600014649393592
0.0003264082645605619
-0.0002570793345471096
0.0003946410534886991
-0.0002885267210940196
0.0007355622266623019
-0.00032344324032350055
0.0003628354678057846
-0.00033361571426255497
0.0020351805396584825
-0.00033775512987657967
0.00032974473151219433
-0.00033868074538675883
0.0007075528876149916
-0.0002642474222521031
0.00028262769441727745
-0.000193044137534208
0.00016455066507921093
-0.0001778759219040511
0.00032856586578548135
-0.00020299772261361525
0.0007198354036136948
-0.00019239186837669025
0.0003220723017343973
-0.0001383085893407282
0.002847357704678591
-9.574924161400014e-05
0.00030365962830739603
-5.929200179910846e-05
0.0007239963576022584
-2.8452643856607134e-05
0.00026904105226082926
7.96516212021961e-05
0.0003695775920517007
0.00013991277681254884
0.0001587798258912516
0.0002216256761069401
0.0007544843369443649
0.00027005932022074126
0.00015294605896162806
0.00029318546222057356
0.0022857861188620124
0.0003499794474572165
0.0001386215859479809
0.000435648181372956
0.0008951361441923184
0.00048044353272064537
0.00021141577507396444
0.000580064998471501
0.0007744699764640539
0.0006136975273094797
0.0002385394683929126
0.0007137105230288099
0.000857425890338405
0.0008391744778701786
0.00029770049354125607
0.0009509844785871114
0.0026835151818329814
0.001045455973229019
0.00025320407092835573
0.0010212047257106577
0.0007450659701666739
0.0011696215372284607
0.00023265789504431776
0.0012846651597581877
0.002225841000008394
0.0013728763766181402
0.00018610823937487887
0.0014914381325383953
0.0008847120254987372
0.0015202556252329655
0.00021661410610473536
0.0015285898364601185
0.0023149412166572052
0.0016053736686854096
0.0002549025787376463
0.0017236687838447103
0.0009769193927477943
0.0017977164759141098
0.0002960120277167023
0.0020100392333567666
0.0005385144451603966
0.002130981157599294
0.0003436689982492166
0.0023598406232316614
0.000960743644170365
0.0023975711619133823
0.00042589443489243105
0.0025571352985814797
0.0026300530000189642
0.0025086654352601385
0.0005000406306765228
0.00269617694186855
0.001028769306801067
0.0026687209043199395
0.0005673030270262058
0.002906473083414033
0.005238189558474103
0.0028945842534033803
0.0005960786213288627
0.0030475834170309497
0.0009644651419406991
0.0031469319389793096
0.0006471123265949162
0.0033621410193842563
0.0020773609329675403
0.003550489865898908
0.0007328234854423077
0.003938934985409573
0.0010481337435286045
0.004121756745526668
0.0008366595060534505
0.004461889574300303
0.00038665622145324385
0.0045144814361587435
0.0009542133259832022
0.004792357131771381
0.0010849132734578716
0.004756726617901895
0.0010886402425364337
0.005016662083710648
0.0025501328171228283
0.004935010244131151
0.0012438537175729224
0.0052450335200086295
0.0008485990669030517
0.0053114519558895325
0.001402382781499162
0.005454805810690342
-0.00037006962706623026
0.005596344068347134
0.0015500092696301157
0.0057993258105520475
0.000886431618592573
0.006088251727431015
0.001682978290286928
0.0061582197916434135
0.002405183011163713
0.006305579099094763
0.0018235084530725501
0.00611239406032645
0.0010399976199301484
0.006151650508035755
0.001985374498736241
0.005667015128515221
0.00022119024265059896
0.005529772426528121
0.0021576214484374935
0.005032857896794694
0.0012209823536349228
0.005024898463683931
0.0023333311502580457
0.0048178305430534125
0.002388990747252626
0.004306944394502237
0.0025110078411933094
0.003666417293626203
0.0011391300129881966
0.0032606255571953685
0.002689964098187031
0.003062220950249683
0.0003335389881428457
0.00271869743964523
0.002856966602264281
0.0019649509037502166
0.0014123710009883907
0.0024854708500839876
0.0030006304643771502
0.0026576193695215756
0.002432097936617945
0.0019627136402919606
0.0031188132366962323
0.0014218285897213017
0.0013694133677895914
0.0011595152411120122
0.0032248655256264915
0.0008137890393007346
0.0004596830764791963
0.0004032216858243688
0.0033309824051670203
-0.0003330474782217474
0.0012262523318315067
-0.0007551856444866599
0.0034347063574661817
-0.001006681791506154
0.0023047873348625543
-0.0015690187541694098
0.0035291002531021264
-0.0019686511843456907
0.0012165065090439583
-0.0024299214809732537
0.003613279983768452
-0.002925859454589173
0.0004955108303336897
-0.003169256583979988
0.0036891612884505025
-0.00341871081118869
0.0012107467407221598
-0.003475089960666761
0.003753783519418237
-0.0034468010974321455
0.0024230676479620157
-0.003331224489207458
0.003798675863442923
-0.003484755635739631
0.0011180647142336512
-0.003228167625260288
0.003819826813857623
-0.0032769590486463316
0.0007265979640556824
-0.0031112369009866302
0.003825168875415285
-0.003132894152978916
0.0022379967215205385
-0.0028920928835463678
0.0038274451439481148
-0.002894842495063952
0.0020939921088029743
-0.0026802561930565332
0.003821814605762241
-0.0026382792845687903
0.0010906692375330792
-0.00244673879541291
0.0037717034158485786
-0.0023853803447830804