# vtk DataFile Version 1.0
GRUMMP topologically 2D mesh
ASCII

DATASET UNSTRUCTURED_GRID
POINTS 6176 float
  1.0000000000000000   0.0000000000000000   0.0000000000000000
  0.9979736161243241   0.0002872981906159   0.0000000000000000
  0.9959038003591104   0.0005818082753016   0.0000000000000000
  0.9937894604158818   0.0008826109490225   0.0000000000000000
  0.9916311447855282   0.0011889740049165   0.0000000000000000
  0.9894256878168368   0.0015011074645448   0.0000000000000000
  0.9871732566523234   0.0018189104108560   0.0000000000000000
  0.9848739492731372   0.0021423104928037   0.0000000000000000
  0.9825241245750710   0.0024717658271048   0.0000000000000000
  0.9801244133260449   0.0028071825305054   0.0000000000000000
  0.9776732769852096   0.0031487906039340   0.0000000000000000
  0.9751690039483889   0.0034968357351786   0.0000000000000000
  0.9726117072730877   0.0038512643819321   0.0000000000000000
  0.9700001180350898   0.0042121148976419   0.0000000000000000
  0.9673332227148538   0.0045793859121594   0.0000000000000000
  0.9646079236541195   0.0049533708962095   0.0000000000000000
  0.9618249648196705   0.0053338679490647   0.0000000000000000
  0.9589807878895711   0.0057213439443832   0.0000000000000000
  0.9560767311296049   0.0061156062701256   0.0000000000000000
  0.9531120216710255   0.0065167463399167   0.0000000000000000
  0.9500819018783057   0.0069253778138591   0.0000000000000000
  0.9469876484068450   0.0073412143029309   0.0000000000000000
  0.9438286210030068   0.0077641908681895   0.0000000000000000
  0.9406001269296587   0.0081947829660712   0.0000000000000000
  0.9373041277084813   0.0086325757434285   0.0000000000000000
  0.9339368121646437   0.0090779560824189   0.0000000000000000
  0.9304976431076690   0.0095309377793780   0.0000000000000000
  0.9269838874379289   0.0099918267186165   0.0000000000000000
  0.9233965242394278   0.0104604374002928   0.0000000000000000
  0.9197323684717913   0.0109371203977286   0.0000000000000000
  0.9159901296799260   0.0114219111797446   0.0000000000000000
  0.9121662515702946   0.0119150917142392   0.0000000000000000
  0.9082612640703632   0.0124164093968364   0.0000000000000000
  0.9042711890176098   0.0129261849544228   0.0000000000000000
  0.9001985925103467   0.0134439182275261   0.0000000000000000
  0.8960367883853674   0.0139703538547480   0.0000000000000000
  0.8917881131106570   0.0145051006126241   0.0000000000000000
  0.8874465968544013   0.0150488093430172   0.0000000000000000
  0.8830132689405343   0.0156012428338051   0.0000000000000000
  0.8784843643309772   0.0161627200549514   0.0000000000000000
  0.8738585592690924   0.0167332093564690   0.0000000000000000
  0.8691331845657406   0.0173128340473851   0.0000000000000000
  0.8643080629784704   0.0179014022230632   0.0000000000000000
  0.8593790220315882   0.0184992057974382   0.0000000000000000
  0.8543443022105112   0.0191062525475961   0.0000000000000000
  0.8492020742372332   0.0197225542022908   0.0000000000000000
  0.8439504592998461   0.0203481184762133   0.0000000000000000
  0.8385847225217766   0.0209832807547837   0.0000000000000000
  0.8331043690503205   0.0216278714070098   0.0000000000000000
  0.8275075883744546   0.0222818740978654   0.0000000000000000
  0.8217896079901662   0.0229456038551552   0.0000000000000000
  0.8159499389768221   0.0236188617887649   0.0000000000000000
  0.8099850870934132   0.0243017702717010   0.0000000000000000
  0.8038929332928342   0.0249942623102002   0.0000000000000000
  0.7976697970229181   0.0256964297179088   0.0000000000000000
  0.7913134730328051   0.0264081777898121   0.0000000000000000
  0.7848218596203610   0.0271293903098903   0.0000000000000000
  0.7781898173908960   0.0278602762976724   0.0000000000000000
  0.7714169256365310   0.0286005013921829   0.0000000000000000
  0.7644979701754163   0.0293502351726533   0.0000000000000000
  0.7574308659438134   0.0301093068082177   0.0000000000000000
  0.7502135053150701   0.0308775557618342   0.0000000000000000
  0.7428404612557281   0.0316551512399728   0.0000000000000000
  0.7353096164115749   0.0324418730798164   0.0000000000000000
  0.7276172963491144   0.0332375368705936   0.0000000000000000
  0.7197598859172740   0.0340418579688506   0.0000000000000000
  0.7117355290536627   0.0348543282856948   0.0000000000000000
  0.7035389878799579   0.0356747811793425   0.0000000000000000
  0.6951650952820780   0.0365031090698871   0.0000000000000000
  0.6866122709923126   0.0373388258653197   0.0000000000000000
  0.6778754950330185   0.0381817369178559   0.0000000000000000
  0.6689534383202176   0.0390312029136988   0.0000000000000000
  0.6598376964403885   0.0398871771799410   0.0000000000000000
  0.6505290121117546   0.0407486821288951   0.0000000000000000
  0.6410191910005383   0.0416153892989160   0.0000000000000000
  0.6313056496470314   0.0424862165552765   0.0000000000000000
  0.6213823079172336   0.0433602824420315   0.0000000000000000
  0.6112489281649386   0.0442362457646169   0.0000000000000000
  0.6008963123926909   0.0451137308907019   0.0000000000000000
  0.5903211292528141   0.0459917803130241   0.0000000000000000
  0.5795184839365645   0.0468692540951747   0.0000000000000000
  0.5684857150099230   0.0477443424041717   0.0000000000000000
  0.5572148862675538   0.0486154402631608   0.0000000000000000
  0.5457024491672809   0.0494805599680832   0.0000000000000000
  0.5339780836677636   0.0503353194116202   0.0000000000000000
  0.5219860728183490   0.0511813660693644   0.0000000000000000
  0.5101253307512127   0.0519891081313360   0.0000000000000000
  0.4985043971600128   0.0527514649709832   0.0000000000000000
  0.4871181100865982   0.0534694955937708   0.0000000000000000
  0.4759663238182478   0.0541439373921026   0.0000000000000000
  0.4650424897306392   0.0547759224024376   0.0000000000000000
  0.4543414694194311   0.0553665338532900   0.0000000000000000
  0.4438615277983380   0.0559167464857066   0.0000000000000000
  0.4335966445555638   0.0564277439227250   0.0000000000000000
  0.4235422171719039   0.0569005367499369   0.0000000000000000
  0.4136931783754329   0.0573360485787389   0.0000000000000000
  0.4040479201781875   0.0577350333573017   0.0000000000000000
  0.3946007843384192   0.0580984587592611   0.0000000000000000
  0.3853459130056055   0.0584273588583778   0.0000000000000000
  0.3762828394437238   0.0587225582688298   0.0000000000000000
  0.3674052759622001   0.0589850521268143   0.0000000000000000
  0.3587104110044708   0.0592156767487264   0.0000000000000000
  0.3501952433465900   0.0594152538281565   0.0000000000000000
  0.3418548081050912   0.0595846279097528   0.0000000000000000
  0.3336858663230149   0.0597246577421592   0.0000000000000000
  0.3256868701986138   0.0598362486465025   0.0000000000000000
  0.3178507769372301   0.0599203474438374   0.0000000000000000
  0.3101776523444911   0.0599777679649948   0.0000000000000000
  0.3026620994593082   0.0600092896252224   0.0000000000000000
  0.2953022098091474   0.0600156089816429   0.0000000000000000
  0.2880942515540157   0.0599974067416477   0.0000000000000000
  0.2810344582773878   0.0599553507162620   0.0000000000000000
  0.2741224198462300   0.0598902308958287   0.0000000000000000
  0.2673508102792782   0.0598027829062179   0.0000000000000000
  0.2607208372897423   0.0596938009430880   0.0000000000000000
  0.2542268737219818   0.0595639532054747   0.0000000000000000
  0.2478699323930078   0.0594139942796022   0.0000000000000000
  0.2416426526986943   0.0592444560641495   0.0000000000000000
  0.2355443386744786   0.0590559928562533   0.0000000000000000
  0.2295742285057687   0.0588492600763349   0.0000000000000000
  0.2237267309732288   0.0586247739586633   0.0000000000000000
  0.2180011540540604   0.0583832555000465   0.0000000000000000
  0.2123936096745636   0.0581252700988444   0.0000000000000000
  0.2069018249031851   0.0578514118247249   0.0000000000000000
  0.2015265925874962   0.0575624139311738   0.0000000000000000
  0.1962639217171782   0.0572587327640815   0.0000000000000000
  0.1911098627978642   0.0569407701058159   0.0000000000000000
  0.1860635373512509   0.0566090833477142   0.0000000000000000
  0.1811225555455632   0.0562641183158228   0.0000000000000000
  0.1762831066659017   0.0559062017034564   0.0000000000000000
  0.1715472965099615   0.0555361405439852   0.0000000000000000
  0.1669099315072494   0.0551541804881659   0.0000000000000000
  0.1623702175183220   0.0547608759938091   0.0000000000000000
  0.1579259317985442   0.0543566416724963   0.0000000000000000
  0.1535748664842349   0.0539418626674859   0.0000000000000000
  0.1493147619729656   0.0535168899310313   0.0000000000000000
  0.1451447283274916   0.0530821904592715   0.0000000000000000
  0.1410625235604109   0.0526380756497570   0.0000000000000000
  0.1370659530359299   0.0521848322503466   0.0000000000000000
  0.1331567814638518   0.0517231967360234   0.0000000000000000
  0.1293276562313525   0.0512528455259629   0.0000000000000000
  0.1255804504092525   0.0507745502773552   0.0000000000000000
  0.1219131281255899   0.0502885988465475   0.0000000000000000
  0.1183237015509818   0.0497952534010120   0.0000000000000000
  0.1148102318092792   0.0492947513229479   0.0000000000000000
  0.1113720175725520   0.0487874812015910   0.0000000000000000
  0.1080070759532941   0.0482736140267307   0.0000000000000000
  0.1047146335147149   0.0477534816268928   0.0000000000000000
  0.1014927513745349   0.0472272179600503   0.0000000000000000
  0.0983395479756496   0.0466949369878610   0.0000000000000000
  0.0952554508934213   0.0461571322873805   0.0000000000000000
  0.0922363866432952   0.0456135046927440   0.0000000000000000
  0.0892828700951544   0.0450645654218522   0.0000000000000000
  0.0863942718297865   0.0445106297655928   0.0000000000000000
  0.0835678320075330   0.0439515803137779   0.0000000000000000
  0.0808019575920066   0.0433874837688950   0.0000000000000000
  0.0780971710598979   0.0428188278852694   0.0000000000000000
[...]
POINT_DATA 6176
SCALARS continuity float
LOOKUP_TABLE default
0.00990863767353709
0.008411335188520885
0.007328053081552692
0.007069820754764313
0.006940262943093249
0.006864274921628981
0.006853249577988887
0.006769780730216642
0.006706630350358809
0.00665671366694639
0.006635472692665787
0.0066340796919073745
0.00665609783727679
0.006668849096888276
0.0066813922895141015
0.00667191047033787
0.006651287049865672
0.006645835168864909
0.0066431418995672575
0.006684215836826529
0.006698834051142406
0.006708506455774554
0.006707917431023535
0.0066839543936129545
0.006661956132974812
0.006652312811930914
0.006649113041961729
0.006629811887657581
0.006609643467271338
0.006585131656164613
0.006558271071272088
0.006524803518068892
0.006481215732153678
0.006423704477627111
0.006362598945140537
0.006313632190128328
0.006275131685155663
0.006239064612021127
0.006200889544689105
0.00616049080290776
0.006118072306047786
0.006071647659588173
0.006019500817531277
0.005972973130751904
0.005939192317099236
0.005914003650829041
0.005888151361136721
0.005856060476105384
0.005813270513731054
0.005757218639289871
0.005691756864957225
0.005630736190993747
0.005585209184088836
0.0055528076061935475
0.005523292983137728
0.005488844767785863
0.005440406623257852
0.005373097931016099
0.005289268385170758
0.005200132677001978
0.005119402604766614
0.005055178924975422
0.005001584377169399
0.0049473660153566135
0.004882646554249514
0.00480454497067839
0.004717191339645829
0.004621872091516765
0.004512359448132879
0.004384839012839614
0.004248515521915953
0.004121109685900802
0.004009816562217568
0.003904245274881844
0.0037837526578373354
0.003635297142492191
0.00346309152261383
0.003277408317663931
0.003090268670710607
0.002919641319154039
0.0027767097798652154
0.0026522094624682455
0.0025331004804280484
0.002420932066643075
0.0023072804863032703
0.002021238609441472
0.0016566091525773458
0.001441354701214596
0.0012509290699820486
0.0010802947247830932
0.0009273439015658068
0.000786451955168684
0.0006570365179328828
0.000543703637607519
0.000446543875072767
0.0003582268896551188
0.0002715979884013354
0.0001885650836130936
0.00012171359252515313
7.937513096122693e-05
5.925436724709879e-05
5.26240437270029e-05
5.5971596176620234e-05
6.908288361469141e-05
8.725541302471957e-05
9.862116307577423e-05
9.505687995629977e-05
8.738224045672865e-05
0.00010039224593546122
0.00014885800160275832
0.00021999458610468504
0.0002922796932577496
0.0003560878766559122
0.00041251030696494315
0.00045526259949830804
0.0004659356838347029
0.0004401770279720401
0.0004133433603286705
0.0004411563606851548
0.0005330929575231893
0.0006416140243813469
0.0007205474902563014
0.0007699560047168414
0.0008057266406467831
0.0008185815605031791
0.0007767006969196673
0.0006899883392549688
0.0006451928964241667
0.0007223357692081648
0.0008923971029616735
0.0010596719155299375
0.001156954361328822
0.001203682171544799
0.001190629651153996
0.0010743934697909061
0.0009040850797495536
0.0009893382856515762
0.0012622423049855798
0.0014225609726955842
0.0014953610441224149
0.0015605513431380946
0.0016349186796910718
0.0016876780311977713
0.0016183209749458748
0.0012968768792596048
0.0009727400762491132
0.0012601935880268008
0.001793497482509317
0.0020200518138505158
0.002121505481882021
0.0022035970541832133
0.0021595140405025136
0.0020039530153993165
0.0011546641197403996
0.0016532176175829282
0.001726609626941355
0.0019574766719230186
0.002236050277519778
0.0024506073487216783
0.0024528659520175666
0.0026819116168500115
0.0028950954523042543
0.0018683698169163977
0.0023425994643215494
0.002453132938916026
0.0024784640020316146
0.0024951912344474366
0.002742283716265643
0.0029419926166428566
0.003302240174898231
0.004138376746682545
0.0035777303712764227
0.003315691994574986
0.0031220704446231332
0.003147381580794557
0.003185139126763266
0.003450559973866553
0.002213685978908673
0.0037038973638558715
0.0026573637012821997
0.004157553139140391
0.003338277825207075
0.005177306233293651
0.003999799359915749
0.005638416342247885
0.0042779828174637075
0.00573245925408224
0.004323595961389694
0.0057457391976614884
0.004186787013895996
0.006097546866322061
0.00603763813749528
0.006036087959862577
0.006676784383343204
0.007299661796884922
0.007851997304171514
0.008014380426472538
0.00849823697522597
0.00873842335859063
0.00910611593262847
0.009170379173546983
0.00989646891239374
0.011086736244472995
0.012087346055887108
0.010506431237315374
0.01060449985495943
0.0122307833051488
0.013031181422073948
0.012913452187574604
0.01296976455806575
0.014312028764434511
0.013986773033510664
0.014090949647744313
0.014346743056281615
0.014624380709657792
0.014427659264251597
0.013330753836078827
0.012942113030431362
0.012321244223875465
0.012715753377977248
0.011987453320128287
0.010801130307428321
0.010004443662370636
0.00972998007697487
0.009314524749029234
0.009145422023651092
0.008731058931606738
0.007871349216249485
0.0075805114019297775
0.006561546506750642
0.007092141050004389
0.006156599075780185
0.006239758743281543
0.0049508551889860045
0.006167723750394472
0.0048297220743188755
0.005888761886393843
0.004526880571898814
0.00551687782344528
0.004095233243388455
0.004997063985704132
0.0036618738097425486
0.004891370823785402
0.0034956429168181654
0.0046931134329042685
0.003197129784385716
0.004297779868402034
0.0026394393312012075
0.0037112450532753903
0.0033707678145376537
0.003250198413009002
0.002625615329910197
0.0030758663348883783
0.0026376214013394865
0.002527806004112661
0.002418917068371179
0.0023533745759727527
0.0024295952551150694
0.002382036675716258
0.0022028233313048876
0.0014738570980189869
0.002318421102666015
0.0019227192381490639
0.0017804271899797522
0.0018273338057731281
0.0015164848684994772
0.0010692744804586024
0.0009492522015883721
0.001004307385709364
0.0009767861363060083
0.0006488240786343672
0.0015198094276434317
0.0014104415846440048
0.0012526886977545053
0.0010911464422264832
0.0005929623904130874
0.0001601181221118452
0.00023522656378760905
0.0005075731942058698
0.000646497047242604
0.0006661386254572849
0.0006053091826508205
0.0005377054874466286
0.0004864354579004283
0.0004335359367552778
0.00026962593280201375
-6.98775393492094e-06
-0.00013856036098249496
-4.1190069903814606e-05
0.00020327120870648792
0.0003479471454257994
0.0003529054700116956
0.0002951817128681555
0.0001942672065012773
1.5603572874974038e-05
-0.00015735492801232178
-0.00020925441618682605
-0.00011645925919959873
1.0727938486883547e-05
6.92773836980808e-05
5.4730475385074885e-05
5.139981547139853e-06
-7.749723581763664e-05
-0.000178584673746257
-0.0002488414463886672
-0.0002471164992366065
-0.00018901374560984592
-0.00013353746089718785
-0.000115508628656561
-0.00012566096562538059
-0.00015001803365648466
-0.0001834149717429576
-0.0002263040163603075
-0.0002766523292084336
-0.00032063644556021466
-0.0003396153232005151
-0.00032928574598936687
-0.0003103136025183036
-0.00030859282469685367
-0.00033188883370161856
-0.0003699538610620562
-0.00041347889050999805
-0.0004575149492604999
-0.0004967888195051938
-0.0005269978734221243
-0.0005508008405209172
-0.0005765667519389201
-0.000608486938446151
-0.0006449830585530001
-0.0006795368556025981
-0.0007044204669683816
-0.0007146289552084746
-0.0007108264275473864
-0.0006965117154041849
-0.0006697308319329427
-0.0006237060253422694
-0.00055151988448371
-0.0004434753961975086
-0.0002123155863900878
-7.105542386986617e-05
-7.263746846219463e-05
-7.295475923036116e-05
-5.636309029674383e-05
-1.4004053768388118e-05
6.715684092183059e-05
0.00018347182842572076
0.0003157660372965413
0.0004463114380166019
0.0005655730379276357
0.0006661476134827998
0.0007522362166663399
0.0008492156252052188
0.0009765812670699363
0.00112274878763589
0.0012645543728574185
0.0013944219940407072
0.0015160068873648622
0.0016301898719059966
0.0017285647822387815
0.0018064935093982637
0.0018752164294120646
0.0019498661651296178
0.0020390775519388295
0.002142095856350651
0.002249409831792628
0.0023471256271801644
0.0024267415557038723
0.0024885396022658254
0.002543318206010357
0.0026060683821715956
0.0026851141769961917
0.002777217775602806
0.0028699553809617257
0.0029554925118439983
0.003034296125042248
0.0031048336237707477
0.0031658695603052445
0.003220768990452836
0.0032750361735407823
0.0033369372687205223
0.003418038938185923
0.0035131743227371183
0.003605147544996592
0.003687768718906091
0.0037621075096800774
0.003828376117900407
0.003888551443580325
0.003946955351159328
0.004002039911717649
0.004057891561504597
0.0041214580802795735
0.004193013327661682
0.004259070534777598
0.004310939081734305
0.004353226741939622
0.00438702021258406
0.004419332040864642
0.004433666494719987
0.004464576812511082
0.004500017504041461
0.004514215414725912
0.00451753259632414
0.004517470039069811
0.004518166420824993
0.00451865390026215
0.00449750736193367
0.004527599720814384
0.004569953887188747
0.004635719975399819
0.004685531184740117
0.004714073893580384
0.004749834209665985
0.004784863472639779
0.0048515730641157315
0.0049366633962964375
0.0050685586603848205
0.00521729762151505
0.005382925504507009
0.005460455599809722
0.00564359850588315
0.005923432949089903
0.006090709881211722
0.006697927635517119
0.008834500468639704
0.008107407074750337
0.007142044250578168
0.007940569199996595
0.009024280133612374
0.008365110054046778
0.007793346004623259
0.007670002914029774
0.0001163810159154388
0.00725708904245546
0.009842170055722032
0.006973446270116566
0.0013475645878272386
0.006868926294426969
0.008878885126426631
0.006810121122404871
0.00015205400416637443
0.0068642867071758975
0.009453390767372095
0.00678810962640426
0.00650769970904597
0.006704261339280396
0.00906964207811359
0.0066597994185883845
0.0002052110292647663
0.006624996746740775
0.010256225907315158
0.006636930839702105
0.0003679702053469954
0.00666073526527127
0.008388925549800792
0.006669757778804663
0.0002518468721231372
0.006688968346372186
0.010130179724560647
0.006674045798400296
0.005891019331274615
0.0066622609957007195
0.00803803773660742
0.006659071837325464
0.00032521851522655803
0.006674389861516077
0.009748676737668552
0.006696776227692001
0.0017865435743371523
0.006717451693370046
0.007072789037054796
0.006726147817755426
0.0004021213702945124
0.006720711240796014
0.008417440406911378
0.006693766495203109
0.005890452223981411
0.006682723892929262
0.0066630788180914585
0.006671002249830723
0.000499456519413486
0.006671608582945352
0.0072995923245661705
0.006647840379451471
0.00035214419857023185
0.0066281141847010245
0.005670502839299545
0.006605084583780612
0.0005534548403627889
0.006577566581527661
0.007278111464414176
0.006541835113837208
0.006385261559551444
0.006493874853486937
0.00599014010302156
0.006434837736342892
0.0005804740479867234
0.006378070331836163
0.007488397185639908
0.0063310147396498425
0.0018814545768309535
0.00629269510631226
0.006039238688395521
0.0062537231060954225
0.0006060365539514837
0.006216194191824728
0.007269511975414036
0.006175917910230865
0.006281060636321291
0.006132818857172094
0.00588975717967775
0.006083860965233425
0.0006324547126137119
0.006033104916393856
0.007057410392014954
0.005990582608559804
0.00037270846831075137
0.00595889001580439
0.005370408733530294
0.005934458260892806
0.0006741549330629572
0.00590863176665008
0.006476790850008988
0.005875260848863662
0.0053773053930010585
0.005829012101614498
0.00471870895954666
0.0057693881044513975
0.0006580544842691913
0.005703586541368737
0.004954656728156621
0.0056466225956983114
0.001356704548982892
0.005605105853789113
0.003606638253614282
0.005574400753380274
0.0007205536701027353
0.005545891919975264
0.004614458196589683
0.005510153949531945
0.004189962890094385
0.005458089212480229
0.003060755540970072
0.0053859500580586035
0.0008254867016911828
0.005299473558693202
0.004472655642189953
0.005211335199401119
0.0004636693586886519
0.005135302786215547
0.0031445038548480863
0.0050753023466707375
0.000980051701912232
0.005023979038633246
0.004058259967833482
0.004969484497448346
0.004423170814944721
0.004903250285647747
0.003376015289215062
0.004824484185876346
0.0010767294822299613
0.004737295508227813
0.004140425743931395
0.004639753404422083
0.003933628804210784
0.00452512731866328
0.003531928634952385
0.004393419710745742
0.0010837900665209852
0.004259079387889072
0.004846749713089981
0.004138273479947532
0.003874012329164256
0.004033462074082837
0.004054080969315054
0.003929298477149542
0.0011008073290301892
0.003804786416806067
0.004430459143900657
0.0036511363678261603
0.0006040995116041687
0.003475199688294419
0.003108697857466439
0.003286615617882182
0.001106590041600966
0.003101007309024259
0.003692026762891804
0.0029382878191493403
0.004206552882858842
0.0028038961524872483
0.0028567201276274846
0.0026840859578258582
0.001125202287553629
0.002565962418195598
0.0034056426938965222
0.00245491460383756
0.001203349988547586
0.0023431763945005115
0.0034474170180536032
0.0020256105015548967
0.0011407504529592643
0.0017092514230249852
0.003676253529560721
0.001483762841469727
0.0040641818257017934
0.001291074084758812
0.003530764739925532
0.0011200387131021742
0.0010825683698572075
0.000969545458465897
0.003236701644546387
0.000833328458753129
0.0007205476581914778
0.0007083649278240428
0.0033630542222907425
0.0005967963970109471
0.0011945305816798801
0.0005003247424140431
0.0032407940053108555
0.0004140912247586741
0.004116612668811075
0.0003312443064170958
0.002687895232601679
0.00025245166441447916
0.0013384852884195497
0.0001871427787234122
0.002156462436630406
0.0001465325170121328
0.0017776244429130157
0.0001306862489433869
0.0023721599121480697
0.00013187606631785709
0.0015926854521425514
0.0001428762277863105
0.0023310834598266558
0.00016054655009016446
0.004883968781565789
0.00018188470417320433
0.0024550578969903154
0.00019877132129658367
0.001705575308805613
0.00020491537827192177
0.0025538005921532402
0.00020699925956841621
0.008308238271837009
0.00022396111234153436
0.00268860250301255
0.00027272212354201124
0.0017084820322073075
0.0003510987904720942
0.00273818136205305
0.00043727770512736803
0.0034373337807831732
0.0005142372834866275
0.0026797417514812
0.0005756174037633649
0.0016550893887877349
0.0006220317963952072
0.0025210873159038716
0.000644014377787696
0.0028294199449409034
0.0006387862653340334
0.002038767275440341
0.0006285553421249193
0.001629055520737504
0.000652058970780555
0.001658704378542138
0.0007396990271187884
0.004180144543739628
0.000860837100405441
0.0016369536939928161
0.0009685617941518132
0.0014361907858668767
0.001031594161632837
0.0018947809852639143
0.0010690823757975468
0.0007455257632287955
0.0010841127916218242
0.00198110184366996
0.0010650847223830319
0.00156721679393935
0.0010192412730958326
0.00202766686818719
0.0009850757277193847
0.004380775428784932
0.0010519135765151668
0.002005812327506408
0.0012099099564277373
0.001999341758961468
0.0013953047622744825
0.0019497601827977709
0.0015239167479810147
0.0014186198193949983
0.001575884247241745
0.0019050973459609644
0.001566479173923186
0.0021480811077007776
0.0015250045969207272
0.001841724372356524
0.0014080139584675118
0.0036172677369531226
0.0014125130919498989
0.0014742303755539566
0.0016531766190631722
0.0021838150035452257
0.001882233281319183
0.001303393883047726
0.001980235663324691
0.0007904470190975859
0.002052009474845467
0.0014656654959598334
0.0021212355716134696
0.0022575429023885454
0.0021587399000977353
0.0014729186472064117
0.0021178082536839364
0.003963819569681396
0.0019812502136754844
0.0014757435793876594
0.0016980447386136862
0.002287023271938544
0.0018018021124028537
0.0014819610681717978
0.002294874833267209
0.0016722608931018434
0.0026210705418175514
0.0014341402067738955
0.00275915957619121
0.002190930270000663
0.0028300261162773365
0.0013177343732099695
0.0028242692145951623
0.004454031647774068
0.002642149451518908
0.0011359560354676798
0.0025188513289577125
0.0022212350114765513
0.0023413379527606097
0.0009908599276686736
0.0024057146381942516
0.0008560869340403264
0.002440875753163559
0.0009188880361091865
0.0028556020134221298
0.0021701343586130813
0.0032660571174819787
0.0009676729027630622
0.003347989847732852
0.006922685345657228
0.003492487548340214
0.0009710441310339049
0.0036386171615097975
0.0022080937171500494
0.003479220161362508
0.0009783129571703524
0.0033285000596865364
0.0014300954112268212
0.003393582468147574
0.0009690090134969448
0.003216082134148429
0.001904073257759393
0.0035784687476261884
0.0009473393690943549
0.003542224680807546
0.003459842569496168
0.004004008554779433
0.0008927216773725233
0.004346659051433888
0.0026839091381777027
0.0047086940256363926
0.0007873879961613738
0.004821099121099035
0.0009008064014216861
0.0043655092726631
0.0006903476489847648
0.004469244472763154
0.0029401288090623898
0.004262054286380776
0.000617164573150643
0.004545432112754271
0.0018855190203301464
0.004381396763275001
0.0005899006994525594
0.004178030897285479
0.003143799051121882
0.004518412376947274
0.0005711712678960558
0.00469096476331583
0.0015228740513656355
0.005197576910160642
0.0005585908548737276
0.0057363202968706865
0.002854178829694005
0.006196147608119459
0.0005369759715572419
0.006398660259615148
0.0028956465803805843
0.006673889202910834
0.0005007256457779459
0.006721120150104914
0.002929538088741614
0.006818893727229937
0.00044879395145895954
0.006813730225010761
0.0009136511559594025
0.0068944616806419085
0.0003752195479170642
0.007063102279320538
0.0028743684086688023
0.007368786503903975
0.0002999342556168244
0.007330423971427523
0.0075259365786337525
0.00773834482959102
0.0002303397969909944
0.007819679258102091
0.0028119424174050086
0.008876163329721966
0.0001805191105053472
0.008820576455016823
0.0014105636233356152
0.009621172431892366
0.00014630232386118143
0.009237731903226873
0.0025706854382840805
0.010026409954293982
0.00012720618710976438
0.009425982733319896
0.0034200921656519856
0.010149933699283128
0.00011390491510907296
0.009909453183301354
0.0020448017847744418
0.010728524098516143
9.840500804774573e-05
0.0109174755861343
0.0008760655817028045
0.010327861503518018
8.100054093577659e-05
0.010372313715564883
0.003006385114111645
0.010797058683529448
6.507491472399622e-05
0.011131531669148768
0.0038827837591592874
0.011240572950451555
5.742105484384415e-05
0.011133638346662296
0.0031022924589581505
0.012623479222457311
5.853893672750413e-05
0.012207009052745042
0.00452747267508453
0.012215287003931092
7.343174159700079e-05
0.012419180818221746
0.003875076824250006
0.01254486972691297
0.00010688089301881526
0.012430185777598838
0.003426023041235148
0.01203615085584036
0.00016224177385679587
0.011666828227316694
0.0032838189594672834
0.011421366651337986
0.00023447976500244494
0.011352840544497976
0.0008871693376664143
0.011177256564597247
0.0003154965556476654
0.010486473520912712
0.00359290907016175
0.010654443542991913
0.00040347567527719927
0.00981435393817997
0.0031552873732005127
0.01037255038250959
0.0005021687930466399
0.009687015129347915
0.0038562138753293956
0.009427737637049993
0.0006149240048260615
0.009157235851577405
0.0014860222991525329
0.008379921945924945
0.000740151334513084
0.007861594933107268
0.003805755888065025
0.0077431419321257675
0.0008748925445817769
0.007564775197979916
0.003930946042752924
0.006950950663348902
0.0010214018048523912
0.006975816521611803
0.006451170254825284
0.006906958067575668
0.0011868936076957154
0.0068116395228697965
0.0011070522564556081
0.006656687507666891
0.0013812326941139094
0.006516378317615894
0.0032516020623210374
0.006307643963685163
0.001606889825767285
0.00608053357384076
0.003155709520372459
0.005811326386503502
0.0018582053052909804
0.0055904794005977925
0.00867392559270326
0.005643795382568502
0.0021755687413093916
0.005682631027470345
0.001762170228440284
0.005627577826074859
0.002305155047686685
0.005355055751429353
0.003465112511623618
0.0052404581804424534
0.0024307891981220245
0.004771328485647527
0.0032127944522600243
0.004745712639628494
0.0025582477102552713