# vtk DataFile Version 1.0
GRUMMP topologically 2D mesh
ASCII

DATASET UNSTRUCTURED_GRID
POINTS 6176 float
  1.0000000000000000   0.0000000000000000   0.0000000000000000
  0.9979736161243241   0.0002872981906159   0.0000000000000000
  0.9959038003591104   0.0005818082753016   0.0000000000000000
  0.9937894604158818   0.0008826109490225   0.0000000000000000
  0.9916311447855282   0.0011889740049165   0.0000000000000000
  0.9894256878168368   0.0015011074645448   0.0000000000000000
  0.9871732566523234   0.0018189104108560   0.0000000000000000
  0.9848739492731372   0.0021423104928037   0.0000000000000000
  0.9825241245750710   0.0024717658271048   0.0000000000000000
  0.9801244133260449   0.0028071825305054   0.0000000000000000
  0.9776732769852096   0.0031487906039340   0.0000000000000000
  0.9751690039483889   0.0034968357351786   0.0000000000000000
  0.9726117072730877   0.0038512643819321   0.0000000000000000
  0.9700001180350898   0.0042121148976419   0.0000000000000000
  0.9673332227148538   0.0045793859121594   0.0000000000000000
  0.9646079236541195   0.0049533708962095   0.0000000000000000
  0.9618249648196705   0.0053338679490647   0.0000000000000000
  0.9589807878895711   0.0057213439443832   0.0000000000000000
  0.9560767311296049   0.0061156062701256   0.0000000000000000
  0.9531120216710255   0.0065167463399167   0.0000000000000000
  0.9500819018783057   0.0069253778138591   0.0000000000000000
  0.9469876484068450   0.0073412143029309   0.0000000000000000
  0.9438286210030068   0.0077641908681895   0.0000000000000000
  0.9406001269296587   0.0081947829660712   0.0000000000000000
  0.9373041277084813   0.0086325757434285   0.0000000000000000
  0.9339368121646437   0.0090779560824189   0.0000000000000000
  0.9304976431076690   0.0095309377793780   0.0000000000000000
  0.9269838874379289   0.0099918267186165   0.0000000000000000
  0.9233965242394278   0.0104604374002928   0.0000000000000000
  0.9197323684717913   0.0109371203977286   0.0000000000000000
  0.9159901296799260   0.0114219111797446   0.0000000000000000
  0.9121662515702946   0.0119150917142392   0.0000000000000000
  0.9082612640703632   0.0124164093968364   0.0000000000000000
  0.9042711890176098   0.0129261849544228   0.0000000000000000
  0.9001985925103467   0.0134439182275261   0.0000000000000000
  0.8960367883853674   0.0139703538547480   0.0000000000000000
  0.8917881131106570   0.0145051006126241   0.0000000000000000
  0.8874465968544013   0.0150488093430172   0.0000000000000000
  0.8830132689405343   0.0156012428338051   0.0000000000000000
  0.8784843643309772   0.0161627200549514   0.0000000000000000
  0.8738585592690924   0.0167332093564690   0.0000000000000000
  0.8691331845657406   0.0173128340473851   0.0000000000000000
  0.8643080629784704   0.0179014022230632   0.0000000000000000
  0.8593790220315882   0.0184992057974382   0.0000000000000000
  0.8543443022105112   0.0191062525475961   0.0000000000000000
  0.8492020742372332   0.0197225542022908   0.0000000000000000
  0.8439504592998461   0.0203481184762133   0.0000000000000000
  0.8385847225217766   0.0209832807547837   0.0000000000000000
  0.8331043690503205   0.0216278714070098   0.0000000000000000
  0.8275075883744546   0.0222818740978654   0.0000000000000000
  0.8217896079901662   0.0229456038551552   0.0000000000000000
  0.8159499389768221   0.0236188617887649   0.0000000000000000
  0.8099850870934132   0.0243017702717010   0.0000000000000000
  0.8038929332928342   0.0249942623102002   0.0000000000000000
  0.7976697970229181   0.0256964297179088   0.0000000000000000
  0.7913134730328051   0.0264081777898121   0.0000000000000000
  0.7848218596203610   0.0271293903098903   0.0000000000000000
  0.7781898173908960   0.0278602762976724   0.0000000000000000
  0.7714169256365310   0.0286005013921829   0.0000000000000000
  0.7644979701754163   0.0293502351726533   0.0000000000000000
  0.7574308659438134   0.0301093068082177   0.0000000000000000
  0.7502135053150701   0.0308775557618342   0.0000000000000000
  0.7428404612557281   0.0316551512399728   0.0000000000000000
  0.7353096164115749   0.0324418730798164   0.0000000000000000
  0.7276172963491144   0.0332375368705936   0.0000000000000000
  0.7197598859172740   0.0340418579688506   0.0000000000000000
  0.7117355290536627   0.0348543282856948   0.0000000000000000
  0.7035389878799579   0.0356747811793425   0.0000000000000000
  0.6951650952820780   0.0365031090698871   0.0000000000000000
  0.6866122709923126   0.0373388258653197   0.0000000000000000
  0.6778754950330185   0.0381817369178559   0.0000000000000000
  0.6689534383202176   0.0390312029136988   0.0000000000000000
  0.6598376964403885   0.0398871771799410   0.0000000000000000
  0.6505290121117546   0.0407486821288951   0.0000000000000000
  0.6410191910005383   0.0416153892989160   0.0000000000000000
  0.6313056496470314   0.0424862165552765   0.0000000000000000
  0.6213823079172336   0.0433602824420315   0.0000000000000000
  0.6112489281649386   0.0442362457646169   0.0000000000000000
  0.6008963123926909   0.0451137308907019   0.0000000000000000
  0.5903211292528141   0.0459917803130241   0.0000000000000000
  0.5795184839365645   0.0468692540951747   0.0000000000000000
  0.5684857150099230   0.0477443424041717   0.0000000000000000
  0.5572148862675538   0.0486154402631608   0.0000000000000000
  0.5457024491672809   0.0494805599680832   0.0000000000000000
  0.5339780836677636   0.0503353194116202   0.0000000000000000
  0.5219860728183490   0.0511813660693644   0.0000000000000000
  0.5101253307512127   0.0519891081313360   0.0000000000000000
  0.4985043971600128   0.0527514649709832   0.0000000000000000
  0.4871181100865982   0.0534694955937708   0.0000000000000000
  0.4759663238182478   0.0541439373921026   0.0000000000000000
  0.4650424897306392   0.0547759224024376   0.0000000000000000
  0.4543414694194311   0.0553665338532900   0.0000000000000000
  0.4438615277983380   0.0559167464857066   0.0000000000000000
  0.4335966445555638   0.0564277439227250   0.0000000000000000
  0.4235422171719039   0.0569005367499369   0.0000000000000000
  0.4136931783754329   0.0573360485787389   0.0000000000000000
  0.4040479201781875   0.0577350333573017   0.0000000000000000
  0.3946007843384192   0.0580984587592611   0.0000000000000000
  0.3853459130056055   0.0584273588583778   0.0000000000000000
  0.3762828394437238   0.0587225582688298   0.0000000000000000
  0.3674052759622001   0.0589850521268143   0.0000000000000000
  0.3587104110044708   0.0592156767487264   0.0000000000000000
  0.3501952433465900   0.0594152538281565   0.0000000000000000
  0.3418548081050912   0.0595846279097528   0.0000000000000000
  0.3336858663230149   0.0597246577421592   0.0000000000000000
  0.3256868701986138   0.0598362486465025   0.0000000000000000
  0.3178507769372301   0.0599203474438374   0.0000000000000000
  0.3101776523444911   0.0599777679649948   0.0000000000000000
  0.3026620994593082   0.0600092896252224   0.0000000000000000
  0.2953022098091474   0.0600156089816429   0.0000000000000000
  0.2880942515540157   0.0599974067416477   0.0000000000000000
  0.2810344582773878   0.0599553507162620   0.0000000000000000
  0.2741224198462300   0.0598902308958287   0.0000000000000000
  0.2673508102792782   0.0598027829062179   0.0000000000000000
  0.2607208372897423   0.0596938009430880   0.0000000000000000
  0.2542268737219818   0.0595639532054747   0.0000000000000000
  0.2478699323930078   0.0594139942796022   0.0000000000000000
  0.2416426526986943   0.0592444560641495   0.0000000000000000
  0.2355443386744786   0.0590559928562533   0.0000000000000000
  0.2295742285057687   0.0588492600763349   0.0000000000000000
  0.2237267309732288   0.0586247739586633   0.0000000000000000
  0.2180011540540604   0.0583832555000465   0.0000000000000000
  0.2123936096745636   0.0581252700988444   0.0000000000000000
  0.2069018249031851   0.0578514118247249   0.0000000000000000
  0.2015265925874962   0.0575624139311738   0.0000000000000000
  0.1962639217171782   0.0572587327640815   0.0000000000000000
  0.1911098627978642   0.0569407701058159   0.0000000000000000
  0.1860635373512509   0.0566090833477142   0.0000000000000000
  0.1811225555455632   0.0562641183158228   0.0000000000000000
  0.1762831066659017   0.0559062017034564   0.0000000000000000
  0.1715472965099615   0.0555361405439852   0.0000000000000000
  0.1669099315072494   0.0551541804881659   0.0000000000000000
  0.1623702175183220   0.0547608759938091   0.0000000000000000
  0.1579259317985442   0.0543566416724963   0.0000000000000000
  0.1535748664842349   0.0539418626674859   0.0000000000000000
  0.1493147619729656   0.0535168899310313   0.0000000000000000
  0.1451447283274916   0.0530821904592715   0.0000000000000000
  0.1410625235604109   0.0526380756497570   0.0000000000000000
  0.1370659530359299   0.0521848322503466   0.0000000000000000
  0.1331567814638518   0.0517231967360234   0.0000000000000000
  0.1293276562313525   0.0512528455259629   0.0000000000000000
  0.1255804504092525   0.0507745502773552   0.0000000000000000
  0.1219131281255899   0.0502885988465475   0.0000000000000000
  0.1183237015509818   0.0497952534010120   0.0000000000000000
  0.1148102318092792   0.0492947513229479   0.0000000000000000
  0.1113720175725520   0.0487874812015910   0.0000000000000000
  0.1080070759532941   0.0482736140267307   0.0000000000000000
  0.1047146335147149   0.0477534816268928   0.0000000000000000
  0.1014927513745349   0.0472272179600503   0.0000000000000000
  0.0983395479756496   0.0466949369878610   0.0000000000000000
  0.0952554508934213   0.0461571322873805   0.0000000000000000
  0.0922363866432952   0.0456135046927440   0.0000000000000000
  0.0892828700951544   0.0450645654218522   0.0000000000000000
  0.0863942718297865   0.0445106297655928   0.0000000000000000
  0.0835678320075330   0.0439515803137779   0.0000000000000000
  0.0808019575920066   0.0433874837688950   0.0000000000000000
  0.0780971710598979   0.0428188278852694   0.0000000000000000
[...]
POINT_DATA 6176
SCALARS continuity float
LOOKUP_TABLE default
-0.003507313804296929
0.0009412956159336849
0.0008178934901022979
0.0006256312769434245
0.0011697783531691445
0.0014205304799032573
0.0014057005365180125
0.0014075786439577671
0.0014273343604942611
0.0014260586505497445
0.00143075418359944
0.0015187529129932576
0.0015272257326519618
0.0015397803301803433
0.0015116769404376668
0.0014841749620857448
0.0014865376176769344
0.001516833314590791
0.0015207554098361758
0.0016121406950703387
0.0015911230451151606
0.001542658603531214
0.0014597987503189415
0.0013221842223240434
0.0012215293483019618
0.0011866373187357018
0.001174964391197935
0.0011546907135942044
0.0011151799276284007
0.0010596613261880936
0.0009982442937292882
0.0009351665812260412
0.0008679899297293573
0.000787771059230906
0.000721711464128773
0.0007121010413141495
0.0007449866319690503
0.0008129619460250362
0.0008579582013042507
0.0008684006986148377
0.0008613260147261791
0.0008434487206591256
0.0008108868753895791
0.0008176646994379215
0.0008879193322320208
0.000995391076277933
0.0010838237083149187
0.0011220574447976905
0.0011286152229190254
0.0011272748555977042
0.001137713289691936
0.001190104421689419
0.0013024320676203684
0.0014530356679939764
0.0015986799219505753
0.0017026584179912524
0.0017721042388936913
0.001835655047769696
0.001914057394007463
0.002025170255778005
0.0021887811099150735
0.0024025863980480216
0.0026273189241184766
0.0028285879976909143
0.0029995122905035056
0.0031604670649279386
0.003329246706673754
0.0034990297766750137
0.0036634966692985146
0.003818736093364853
0.0039936609468597005
0.004205404087857741
0.004433617167260425
0.004626208760010841
0.004747553716970856
0.004807809925046968
0.004844466806573739
0.004884938262561259
0.004945047336410641
0.005029479516598606
0.005115289076975031
0.005164516224515142
0.005161508356568214
0.005153586537342567
0.005122331661321308
0.0045494018592969485
0.0036911021760250664
0.0033158107413127874
0.0029917616096164046
0.0026485826535679875
0.0022938651027111226
0.0019394467015018686
0.001595209481426842
0.0012658603826162407
0.0009550037627332415
0.0006741287876793179
0.0004343146023081438
0.00024171244320269074
8.863463821533413e-05
-3.8589044685668475e-05
-0.00015172271827749263
-0.00023848081700798986
-0.0002846601993663245
-0.00030064774395593567
-0.0002959754577869063
-0.0002818155458300633
-0.00026084413569000414
-0.0002334571247189119
-0.00020965571137806328
-0.0002070472364797787
-0.000229409360747672
-0.00025906325630255223
-0.0002902406287185173
-0.00033969791951783907
-0.0004146295522330819
-0.0005145260345056452
-0.0006311701153858798
-0.0007296243921961264
-0.0007927568009183738
-0.0008585901627361694
-0.0009492071194379657
-0.0010557615404133067
-0.001171283044740368
-0.0012947178721358396
-0.0014448884569824457
-0.0016541060651765356
-0.001861674749003672
-0.001921969102680402
-0.0018067782364477609
-0.0016962411715397052
-0.0016822103697905493
-0.0017541007235997602
-0.0018483475490546335
-0.002009464883387797
-0.002286430297337635
-0.002473145489986313
-0.002207369985349863
-0.0019815110650526005
-0.0020342772033388255
-0.00206636112731165
-0.0020989371280446148
-0.002151710507445564
-0.0022320750737294423
-0.002449200335662629
-0.003048288028665462
-0.0033575395094463663
-0.0027277982127174127
-0.0022061668168672117
-0.002171910996973782
-0.00218241954489313
-0.0022243225030687042
-0.0024336432703479646
-0.0028088417612127984
-0.004389078435565733
-0.0030187688382468927
-0.0030321427114470586
-0.0025836627831994793
-0.0025081554663996253
-0.002349907636936382
-0.002351472887269848
-0.0020994825594471277
-0.0019971125104530406
-0.003667567186870645
-0.0019716709155260413
-0.001646378263725871
-0.0016804686078553046
-0.001572522299415151
-0.0013667214924811852
-0.0013352787675512965
-0.001159636445089912
-5.890345335962446e-05
-0.0010620844019579086
-0.0009987241003099599
-0.0010329318978229782
-0.000851640587541316
-0.0008096849509938129
-0.0005548550210161756
-0.002757355667337021
0.00042428189090272343
-0.0022806300301984645
0.0008647676421350294
-0.0017358670183239722
0.0017643513064977512
-0.0012255654783300352
0.002132179399992259
-0.000941837764473472
0.0022635565241937265
-0.0008796810727886382
0.0022853791327044595
-0.0011393029732804359
0.003007679183620647
0.0024585884556494607
0.0023055498422247635
0.0029089972014978913
0.0032691521599659966
0.003532803476332183
0.0033900801310661425
0.0037493365753753557
0.0036837426558119575
0.003777256667088907
0.003386810465518072
0.003735640355367743
0.004637137808221131
0.005706367847472952
0.003693472325604381
0.003878566862988765
0.004850572804333098
0.004842258847608287
0.004235909718092878
0.004021998556563044
0.005222884068170425
0.005752538276721238
0.006166223582452317
0.006609652142461764
0.007285213399822843
0.00785792549145364
0.007529150618654759
0.008389594262976996
0.006061274018939038
0.0059642954946301655
0.0053915520540673036
0.004557221815972821
0.004001656487941471
0.003911117750186134
0.003572848856618964
0.003748781250112086
0.003518210971475092
0.002866479944388347
0.0028918006096265475
0.0016097075029557018
0.0028334059296655995
0.001853739767087246
0.00301987507927607
-0.0007677235314882226
0.0022526067517024705
-0.0013225407620752912
0.0013206932239406915
-0.002048946570632165
0.0006417173350524371
-0.002655437516559449
-7.112361061192591e-05
-0.0033865412992177767
-0.0006358365948403057
-0.004098805770740619
-0.001264598059037599
-0.004705466052981612
-0.00181779992297594
-0.0052896933698889145
-0.0029596434332429234
-0.0030426266606244467
-0.002944385778759458
-0.0038229981042580633
-0.0026584043652164695
-0.0033082906797779156
-0.0032830549861413844
-0.0032162321075340727
-0.003318359483293154
-0.003386799134599207
-0.003638058107249006
-0.0040841099182468915
-0.006165360464908501
-0.004552550672053542
-0.004916668130076933
-0.005162500363879537
-0.005089576759617922
-0.005231068459454608
-0.005308598994503629
-0.005735942798359826
-0.005497907350005245
-0.0054787076090690905
-0.006691698974555566
-0.005164968872048251
-0.005097022095125782
-0.0051886498176715035
-0.005224665700756769
-0.005655292087405318
-0.006187756602729923
-0.006067919470536592
-0.005595893089889146
-0.0052380418424165095
-0.005081880653362468
-0.005005552519171571
-0.004971144287884331
-0.004943759590256881
-0.004870982867468662
-0.004863006326541769
-0.005064618799078525
-0.005263153742895749
-0.0051842811282400945
-0.004829676425039743
-0.004440765092034379
-0.004165031215708008
-0.003953118408182855
-0.003774076495115577
-0.003688135628340128
-0.0037171916086036387
-0.0037615876501473286
-0.003628856147014834
-0.0033290823599952776
-0.0029988306322076184
-0.002702163172748495
-0.002404111074123118
-0.0021015790270271046
-0.001822438700913459
-0.0015762563043331347
-0.0012968548210169264
-0.0009052984396808545
-0.0003850848062133094
0.0002340720136723116
0.0009427283962177579
0.0017334691424025514
0.002599960307392341
0.0035324469082276596
0.004507838143475538
0.005481873919134821
0.006410081862172979
0.007282256508630367
0.008084801781496514
0.008785139030370826
0.009336121002738887
0.009718055824390785
0.009933577256825003
0.00997822505368613
0.009844939406892754
0.009536316519972101
0.009073384774573787
0.008478116528363368
0.007767985847054604
0.006961416069892008
0.006093148145314035
0.005203755540552895
0.0043287138344242975
0.003485052170429322
0.002660268006764425
0.001850158169564438
0.0010709584138297989
0.0003574051579603052
-0.0002532625880803747
-0.0006277346570189384
-0.0010317294047168953
-0.0015462797818792816
-0.0019777263759517792
-0.0023286263973085605
-0.002611298433669368
-0.002797734770406103
-0.002884172022791537
-0.0028984947360328655
-0.0028759273842328234
-0.0028414866175162
-0.002829876773411711
-0.002850748040117706
-0.0028643966918430897
-0.0028466995123658466
-0.002817825828346657
-0.0027985774704872906
-0.0027872722036888656
-0.0027732833226613595
-0.0027640542445995335
-0.002780136483902833
-0.002821531084907
-0.002869530114837615
-0.002908143912521141
-0.002922948140575324
-0.002895952443589708
-0.002838160472830226
-0.0027835655174198917
-0.002749328656345788
-0.002723165072152997
-0.002705624111893876
-0.002707438294160805
-0.002700831563923085
-0.002662737202981867
-0.0026279623361287695
-0.002631682278353831
-0.002678554635630171
-0.002756288468439189
-0.0028347752225315772
-0.002915919180367499
-0.0030313897343208136
-0.003166020430182779
-0.0032531192081502436
-0.003283105687016734
-0.0033111144850044407
-0.00335649175281595
-0.0034061947102307427
-0.0034372016047066827
-0.0034461327375018723
-0.0034724301581674144
-0.0035267517817445635
-0.0035595569900815243
-0.003554641554261694
-0.00350253253346178
-0.0034389908081593305
-0.0033793814741311236
-0.0033163916048877693
-0.00327638231900869
-0.003264317761659682
-0.0032866373665851327
-0.003239979409386076
-0.003157430624687794
-0.0031146668003477333
-0.003096965526203987
-0.003086209021165436
-0.003073446523580255
-0.0030646670583558437
-0.003141493398701866
-0.0032050446923881848
-0.0032649329793477248
-0.0033130730012130385
-0.0033035098617718753
-0.00326166690440423
-0.0032400377443187094
-0.003195540229438408
-0.0031890808732450474
-0.0031621626670012173
-0.0030774244444694535
-0.002962469533574388
-0.002723960536431262
-0.0023080279228436524
-0.0019312241126238235
-0.0013752754159411485
-0.0013761282715022555
-0.0026471446952455865
-0.0010043073242018178
-0.0010674317429042628
6.526292418825111e-05
-0.000694773160152682
-0.002268329581011521
-0.002611462832097031
-0.00221904514087389
-0.00044825122627078085
-0.003488192369309468
0.00045050298526495613
0.0032759163818374074
0.0009929839626130913
0.00278677721871895
0.0013069077223343806
0.0017548229404791638
0.0014411746036426352
-0.0035274274007502005
0.0013557781588459834
0.0025293538770595997
0.0013472410924956183
0.0026599003831054642
0.0013756400578392308
0.002358495670930613
0.001373749796052733
-0.0035718637896076334
0.0014344440762000376
0.004421028752273868
0.0014550176259897308
-0.0062396921704916605
0.001483599434787986
0.0021740605340445844
0.0014902004812301522
-0.0036487103246684994
0.0014382188320836333
0.004963651297613545
0.0013916595964765753
0.0019094161790026913
0.001418464203522445
0.0023129212654020696
0.0014419395335119984
-0.0036886887973597684
0.0015319605017398742
0.005134770375312069
0.0015341638657836987
-0.0013358115904270463
0.0015163071974824808
0.0016658657569758174
0.0014674946359532449
-0.0037954956888829987
0.001365495334076025
0.004093871516372839
0.0012091407274863763
0.0016089980675749714
0.0011424661488145657
0.0019952313560423146
0.0010948071262709752
-0.003876506294155053
0.0011108781115964756
0.003049265185637789
0.0010605077480335193
-0.006289991790385074
0.0010179712456639027
0.0006036502985250967
0.0009629639144697774
-0.004027361887542194
0.0009016688372251238
0.002777224398963115
0.0008338678243811345
0.0022248975200123635
0.000761369620293733
0.001012086088864239
0.0006784135610962448
-0.004186425408031006
0.0006325997562224814
0.0030665275611061796
0.0006229934188800694
0.0010253079241594782
0.0006688062715328663
0.0010225367964074824
0.0007309518270040076
-0.004314773541822759
0.0007754886702601016
0.0027039875300942815
0.0007831608900805809
0.002398313750663595
0.0007791993284240402
0.0007247852804718721
0.0007522688281106505
-0.004460988093251059
0.0007305441829039896
0.002391782875938599
0.0007564418286468215
-0.0063206656437252125
0.0008351990054763612
7.513725612050457e-06
0.0009469712210133645
-0.004660290121804698
0.001025267362028242
0.0017129751307929826
0.0010536421235556401
0.001977337316166246
0.0010609989464728906
-0.0005976622765683165
0.001060976010880269
-0.004787886726586055
0.0010794885982990477
-9.50925092351633e-05
0.0011493291861917904
-0.0015162605075879068
0.0012752649725400328
-0.002020866884594394
0.001433370901525106
-0.0048086985630444905
0.001573183615106508
-0.0005088592762390572
0.0016677786827239852
0.000979445058810623
0.001734510924873148
-0.0025504476106809762
0.0018007482671370037
-0.004817247231825339
0.001883405006123098
-0.0007038674172263348
0.0020078333312887144
-0.006103119697579279
0.002189920991532782
-0.002465174763416166
0.002411316043668873
-0.004896136896246074
0.0026342235420258636
-0.0013038143389908603
0.0028269816633984283
0.0011558277260020839
0.0029946031212292473
-0.002452928507198719
0.0031603228802838715
-0.005017596559557681
0.0033309144148244967
-0.0016375133023785033
0.0035006359910366956
0.0015744025453155721
0.003659053421146257
-0.0030828598014038737
0.0038189605618783786
-0.005186344425824164
0.004008849768519152
-0.0013869143926873511
0.004236719368194568
0.0006071634622992672
0.004464626433276199
-0.002683148001452802
0.00464407978276435
-0.0052928157948680735
0.004750156846689245
-0.0015806272287917924
0.004807153253229338
-0.005920214607407912
0.004847984432735668
-0.0033648163332538005
0.004898151416288302
-0.005433607952569587
0.004970830884246397
-0.002359637049787511
0.005067965057900117
0.00104007117773049
0.005154678547434601
-0.003505486067111905
0.005192876183590481
-0.005621850053538978
0.005182215321136456
-0.0028377050761510896
0.00517722571525741
-0.0023784287445989686
0.005148796092030329
-0.002916106856896213
0.004445655992468247
-0.005598682413745358
0.0036647783949215443
-0.0026033699105101685
0.003251894491521999
0.0007204302016419325
0.0029199549433719073
-0.0028671091200821925
0.0025809183408215925
-0.005703987964015034
0.0022290185004524015
-0.003215515026966087
0.0018749716379325657
-0.005717513279256398
0.001529888567141149
-0.003133442263575308
0.0011990558415145478
-0.005583542687215455
0.0008854271310576254
-0.0033118641550308734
0.0006012407134899345
-0.00014429246725536514
0.00035635493764727246
-0.003948592811928614
0.00015896147356888067
-0.0053473641106123754
6.88479097800263e-06
-0.005117933089560231
-0.00011461687447745378
0.0012825658314956907
-0.0002197910568688871
-0.005106676400599865
-0.0003055519947299956
-0.005104424004057167
-0.0003592311053693928
-0.005049052275296297
-0.0003778565448362942
0.0011637977850721562
-0.000375285391005264
-0.004564562551926164
-0.0003609232230272978
-0.005085804498584138
-0.0003367175560053538
-0.004329483913273436
-0.0003048584513921707
0.005401152111062411
-0.000271751947659426
-0.00411308075611536
-0.00025152558472074573
-0.005202124773577145
-0.00025453476008767574
-0.0037573371988194374
-0.0002828908975886702
-0.00013440917836610153
-0.00031856992847801777
-0.00372004574504428
-0.0003720824719470814
-0.005536389972856442
-0.000446561778239148
-0.0036577056082295776
-0.0005398276164868008
-0.0016700731620706553
-0.0006464144800712058
-0.004203061214038349
-0.0007389664607072605
-0.005584036532045608
-0.0008019934975857585
-0.005051746042262597
-0.0008357295757368376
0.0006205087530915095
-0.0009089288138480187
-0.005164552538213836
-0.0010149874292362435
-0.005684317051338807
-0.0011494211483523424
-0.0046512401055088535
-0.0012829219602258453
-0.005627678669287363
-0.0014348588320191576
-0.00458552823500341
-0.0016229983071039517
-0.005490020993069434
-0.0018041650542618408
-0.004232329606186947
-0.001864329501726644
0.0005795297879800079
-0.0017444949882960928
-0.004049557626596983
-0.0016153683641129512
-0.004932248374694612
-0.0015762437664456315
-0.00400605255308557
-0.0016491850120263715
-0.0018184277596675841
-0.0017765540188735274
-0.003932643552220112
-0.0019508588787812023
-0.004926483232408438
-0.0021311175178405414
-0.0037495709678759645
-0.0022740030744415546
-0.0005078649116268052
-0.002100699607388669
-0.004034262638481283
-0.0018736977049692762
-0.004910848539388088
-0.0018662995882579563
-0.00436299642727482
-0.0019467619111405347
-0.005445207174707407
-0.001996431037872202
-0.004087032420081235
-0.0020528272779115385
-0.004811780942447775
-0.002183390736176452
-0.004120003083705125
-0.002425241530374434
-0.00015894319256082334
-0.002578728128014987
-0.0038900316852616594
-0.0030087123957960103
-0.004843666756755849
-0.0025713062729709277
-0.0037007913677479243
-0.0019909985633234143
0.002656579849653502
-0.001805692574076121
-0.003565668688336779
-0.00184815794744163
-0.005279124114994139
-0.0019236623632074331
-0.003473021437883166
-0.002183653053565668
-0.00017583030946220188
-0.002492196889748329
-0.0034642695147808857
-0.0023787813081205048
-0.005205604505791176
-0.0027661614770362482
-0.003605921152111252
-0.0027354087459576454
-0.005274658290335785
-0.0028218486743540492
-0.0037865887646955794
-0.002036094089252816
-0.00498361308158943
-0.00168376031085642
-0.003690892308986428
-0.0015980541784720733
0.001479461839024785
-0.0014523664008874865
-0.0034739815523170685
-0.0013949698338085214
-0.00512764784994749
-0.001286332364362348
-0.003279628178206259
-0.001248558238447124
-0.0026369185385669274
-0.0009899492804708882
-0.003110770659703571
-0.001150557531294713
-0.005529586233651034
-0.000572242989754796
-0.0029255572943569998
-0.0008117628794034953
-0.0014703156988721867
-0.00031331887183327987
-0.002731172787343784
-0.00025840348466559426
-0.004238832041510331
-0.00021295154169334243
-0.002595536329407693
0.0001580801645395202
-0.005328764537081507
-0.00011425315296087954
-0.002479557183904085
0.0003286745686796437
-0.004213228938882201
0.00021491060185744318
-0.002423107494541258
0.000635578331267315
-0.002887078877932283
0.0005510307697860088
-0.002318975060808806
0.0005494157180866057
-0.003852781670050784
0.0008851296538427659
-0.0021813473060872893
0.001165879119315156
0.0010762349478099916
0.0016768565404631493
-0.0020323464676087707
0.0022439151343239447
-0.004445048007239934
0.002627985895021326
-0.001897775208353081
0.0027704441915893164
-0.00251874308530631
0.0030566894479300754
-0.0017755574381180302
0.003154409474390381
-0.004487518261162553
0.0032409873949834573
-0.0016714427177954008
0.0033077568492383613
-0.005439213500513091
0.0033672127385680787
-0.001596728020298848
0.0036345852957662085
-0.004238245700818015
0.0039984952773407575
-0.0015258551911801576
0.0037876596569455696
0.005174197886208316
0.004270616879558898
-0.001478940131864451
0.004154700806985386
-0.00445307359863926
0.005205575730266381
-0.0014478706932158714
0.004599492278791477
-0.0025608218548038297
0.005271196043242428
-0.0014416926067690725
0.004444577703207294
-0.005100412350071803
0.005075510611688099
-0.00144054796344853
0.003951913139942598
-0.001111448022211105
0.004394639930384264
-0.0014311094064153374
0.0036974012820874457
-0.005866419024857519
0.004222623692667498
-0.001407588592778661
0.0044020310293301475
-0.005295389760346088
0.004016272371548448
-0.001374355540519646
0.004265261422655638
-0.003910481615564173
0.004103494780884574
-0.0013288958939425802
0.003920561434673438
-0.0005642120718876588
0.003680694408374017
-0.0012443451328716729
0.0030432860949972133
-0.003943673414094047
0.0038174148532605337
-0.001129301257518289
0.0038997297111337354
-0.0003411274025939525
0.0037110172795945524
-0.0009899318970317357
0.0036119374122318974
-0.0027615894085351836
0.003456791633873903
-0.0008348575559286906
0.0032408044778744895
-0.001644473360284072
0.0029734123812731185
-0.0006536839419461272
0.0026267962076609573
-0.003232938134450657
0.0011780728539394335
-0.0004290183126792955
3.7851916434535525e-05
-0.00538164589812322
-0.00023474867643503088
-0.00015596755904704858
-0.0003349166855379944
-0.0026594656744153688
0.0007925042022888612
0.00015937795548883732
0.0005982818345074462
-0.002101377761370459
0.002145326755879975
0.0004989071590403263
0.001979704606836343
-0.0023350371916733247
0.002656697918104079
0.0008545545746680908
0.00294019574487468
-0.0024326410903989203
0.0024985195635671867
0.001225684411655938
0.002276272933200503
-0.0022156275390401853
0.002596612804615229
0.0016045696066804046
0.002931708432133558
-0.0013993282683089016
0.0022779757251712228
0.0019797133727514245
0.0028644766673103974
-0.0003486028834443486
0.0022314110445854143
0.0023409189749163967
0.002302301529540234
-0.00469887819826951
0.0016398688289485477