# vtk DataFile Version 1.0
GRUMMP topologically 2D mesh
ASCII

DATASET UNSTRUCTURED_GRID
POINTS 6176 float
  1.0000000000000000   0.0000000000000000   0.0000000000000000
  0.9979736161243241   0.0002872981906159   0.0000000000000000
  0.9959038003591104   0.0005818082753016   0.0000000000000000
  0.9937894604158818   0.0008826109490225   0.0000000000000000
  0.9916311447855282   0.0011889740049165   0.0000000000000000
  0.9894256878168368   0.0015011074645448   0.0000000000000000
  0.9871732566523234   0.0018189104108560   0.0000000000000000
  0.9848739492731372   0.0021423104928037   0.0000000000000000
  0.9825241245750710   0.0024717658271048   0.0000000000000000
  0.9801244133260449   0.0028071825305054   0.0000000000000000
  0.9776732769852096   0.0031487906039340   0.0000000000000000
  0.9751690039483889   0.0034968357351786   0.0000000000000000
  0.9726117072730877   0.0038512643819321   0.0000000000000000
  0.9700001180350898   0.0042121148976419   0.0000000000000000
  0.9673332227148538   0.0045793859121594   0.0000000000000000
  0.9646079236541195   0.0049533708962095   0.0000000000000000
  0.9618249648196705   0.0053338679490647   0.0000000000000000
  0.9589807878895711   0.0057213439443832   0.0000000000000000
  0.9560767311296049   0.0061156062701256   0.0000000000000000
  0.9531120216710255   0.0065167463399167   0.0000000000000000
  0.9500819018783057   0.0069253778138591   0.0000000000000000
  0.9469876484068450   0.0073412143029309   0.0000000000000000
  0.9438286210030068   0.0077641908681895   0.0000000000000000
  0.9406001269296587   0.0081947829660712   0.0000000000000000
  0.9373041277084813   0.0086325757434285   0.0000000000000000
  0.9339368121646437   0.0090779560824189   0.0000000000000000
  0.9304976431076690   0.0095309377793780   0.0000000000000000
  0.9269838874379289   0.0099918267186165   0.0000000000000000
  0.9233965242394278   0.0104604374002928   0.0000000000000000
  0.9197323684717913   0.0109371203977286   0.0000000000000000
  0.9159901296799260   0.0114219111797446   0.0000000000000000
  0.9121662515702946   0.0119150917142392   0.0000000000000000
  0.9082612640703632   0.0124164093968364   0.0000000000000000
  0.9042711890176098   0.0129261849544228   0.0000000000000000
  0.9001985925103467   0.0134439182275261   0.0000000000000000
  0.8960367883853674   0.0139703538547480   0.0000000000000000
  0.8917881131106570   0.0145051006126241   0.0000000000000000
  0.8874465968544013   0.0150488093430172   0.0000000000000000
  0.8830132689405343   0.0156012428338051   0.0000000000000000
  0.8784843643309772   0.0161627200549514   0.0000000000000000
  0.8738585592690924   0.0167332093564690   0.0000000000000000
  0.8691331845657406   0.0173128340473851   0.0000000000000000
  0.8643080629784704   0.0179014022230632   0.0000000000000000
  0.8593790220315882   0.0184992057974382   0.0000000000000000
  0.8543443022105112   0.0191062525475961   0.0000000000000000
  0.8492020742372332   0.0197225542022908   0.0000000000000000
  0.8439504592998461   0.0203481184762133   0.0000000000000000
  0.8385847225217766   0.0209832807547837   0.0000000000000000
  0.8331043690503205   0.0216278714070098   0.0000000000000000
  0.8275075883744546   0.0222818740978654   0.0000000000000000
  0.8217896079901662   0.0229456038551552   0.0000000000000000
  0.8159499389768221   0.0236188617887649   0.0000000000000000
  0.8099850870934132   0.0243017702717010   0.0000000000000000
  0.8038929332928342   0.0249942623102002   0.0000000000000000
  0.7976697970229181   0.0256964297179088   0.0000000000000000
  0.7913134730328051   0.0264081777898121   0.0000000000000000
  0.7848218596203610   0.0271293903098903   0.0000000000000000
  0.7781898173908960   0.0278602762976724   0.0000000000000000
  0.7714169256365310   0.0286005013921829   0.0000000000000000
  0.7644979701754163   0.0293502351726533   0.0000000000000000
  0.7574308659438134   0.0301093068082177   0.0000000000000000
  0.7502135053150701   0.0308775557618342   0.0000000000000000
  0.7428404612557281   0.0316551512399728   0.0000000000000000
  0.7353096164115749   0.0324418730798164   0.0000000000000000
  0.7276172963491144   0.0332375368705936   0.0000000000000000
  0.7197598859172740   0.0340418579688506   0.0000000000000000
  0.7117355290536627   0.0348543282856948   0.0000000000000000
  0.7035389878799579   0.0356747811793425   0.0000000000000000
  0.6951650952820780   0.0365031090698871   0.0000000000000000
  0.6866122709923126   0.0373388258653197   0.0000000000000000
  0.6778754950330185   0.0381817369178559   0.0000000000000000
  0.6689534383202176   0.0390312029136988   0.0000000000000000
  0.6598376964403885   0.0398871771799410   0.0000000000000000
  0.6505290121117546   0.0407486821288951   0.0000000000000000
  0.6410191910005383   0.0416153892989160   0.0000000000000000
  0.6313056496470314   0.0424862165552765   0.0000000000000000
  0.6213823079172336   0.0433602824420315   0.0000000000000000
  0.6112489281649386   0.0442362457646169   0.0000000000000000
  0.6008963123926909   0.0451137308907019   0.0000000000000000
  0.5903211292528141   0.0459917803130241   0.0000000000000000
  0.5795184839365645   0.0468692540951747   0.0000000000000000
  0.5684857150099230   0.0477443424041717   0.0000000000000000
  0.5572148862675538   0.0486154402631608   0.0000000000000000
  0.5457024491672809   0.0494805599680832   0.0000000000000000
  0.5339780836677636   0.0503353194116202   0.0000000000000000
  0.5219860728183490   0.0511813660693644   0.0000000000000000
  0.5101253307512127   0.0519891081313360   0.0000000000000000
  0.4985043971600128   0.0527514649709832   0.0000000000000000
  0.4871181100865982   0.0534694955937708   0.0000000000000000
  0.4759663238182478   0.0541439373921026   0.0000000000000000
  0.4650424897306392   0.0547759224024376   0.0000000000000000
  0.4543414694194311   0.0553665338532900   0.0000000000000000
  0.4438615277983380   0.0559167464857066   0.0000000000000000
  0.4335966445555638   0.0564277439227250   0.0000000000000000
  0.4235422171719039   0.0569005367499369   0.0000000000000000
  0.4136931783754329   0.0573360485787389   0.0000000000000000
  0.4040479201781875   0.0577350333573017   0.0000000000000000
  0.3946007843384192   0.0580984587592611   0.0000000000000000
  0.3853459130056055   0.0584273588583778   0.0000000000000000
  0.3762828394437238   0.0587225582688298   0.0000000000000000
  0.3674052759622001   0.0589850521268143   0.0000000000000000
  0.3587104110044708   0.0592156767487264   0.0000000000000000
  0.3501952433465900   0.0594152538281565   0.0000000000000000
  0.3418548081050912   0.0595846279097528   0.0000000000000000
  0.3336858663230149   0.0597246577421592   0.0000000000000000
  0.3256868701986138   0.0598362486465025   0.0000000000000000
  0.3178507769372301   0.0599203474438374   0.0000000000000000
  0.3101776523444911   0.0599777679649948   0.0000000000000000
  0.3026620994593082   0.0600092896252224   0.0000000000000000
  0.2953022098091474   0.0600156089816429   0.0000000000000000
  0.2880942515540157   0.0599974067416477   0.0000000000000000
  0.2810344582773878   0.0599553507162620   0.0000000000000000
  0.2741224198462300   0.0598902308958287   0.0000000000000000
  0.2673508102792782   0.0598027829062179   0.0000000000000000
  0.2607208372897423   0.0596938009430880   0.0000000000000000
  0.2542268737219818   0.0595639532054747   0.0000000000000000
  0.2478699323930078   0.0594139942796022   0.0000000000000000
  0.2416426526986943   0.0592444560641495   0.0000000000000000
  0.2355443386744786   0.0590559928562533   0.0000000000000000
  0.2295742285057687   0.0588492600763349   0.0000000000000000
  0.2237267309732288   0.0586247739586633   0.0000000000000000
  0.2180011540540604   0.0583832555000465   0.0000000000000000
  0.2123936096745636   0.0581252700988444   0.0000000000000000
  0.2069018249031851   0.0578514118247249   0.0000000000000000
  0.2015265925874962   0.0575624139311738   0.0000000000000000
  0.1962639217171782   0.0572587327640815   0.0000000000000000
  0.1911098627978642   0.0569407701058159   0.0000000000000000
  0.1860635373512509   0.0566090833477142   0.0000000000000000
  0.1811225555455632   0.0562641183158228   0.0000000000000000
  0.1762831066659017   0.0559062017034564   0.0000000000000000
  0.1715472965099615   0.0555361405439852   0.0000000000000000
  0.1669099315072494   0.0551541804881659   0.0000000000000000
  0.1623702175183220   0.0547608759938091   0.0000000000000000
  0.1579259317985442   0.0543566416724963   0.0000000000000000
  0.1535748664842349   0.0539418626674859   0.0000000000000000
  0.1493147619729656   0.0535168899310313   0.0000000000000000
  0.1451447283274916   0.0530821904592715   0.0000000000000000
  0.1410625235604109   0.0526380756497570   0.0000000000000000
  0.1370659530359299   0.0521848322503466   0.0000000000000000
  0.1331567814638518   0.0517231967360234   0.0000000000000000
  0.1293276562313525   0.0512528455259629   0.0000000000000000
  0.1255804504092525   0.0507745502773552   0.0000000000000000
  0.1219131281255899   0.0502885988465475   0.0000000000000000
  0.1183237015509818   0.0497952534010120   0.0000000000000000
  0.1148102318092792   0.0492947513229479   0.0000000000000000
  0.1113720175725520   0.0487874812015910   0.0000000000000000
  0.1080070759532941   0.0482736140267307   0.0000000000000000
  0.1047146335147149   0.0477534816268928   0.0000000000000000
  0.1014927513745349   0.0472272179600503   0.0000000000000000
  0.0983395479756496   0.0466949369878610   0.0000000000000000
  0.0952554508934213   0.0461571322873805   0.0000000000000000
  0.0922363866432952   0.0456135046927440   0.0000000000000000
  0.0892828700951544   0.0450645654218522   0.0000000000000000
  0.0863942718297865   0.0445106297655928   0.0000000000000000
  0.0835678320075330   0.0439515803137779   0.0000000000000000
  0.0808019575920066   0.0433874837688950   0.0000000000000000
  0.0780971710598979   0.0428188278852694   0.0000000000000000
[...]
POINT_DATA 6176
SCALARS continuity float
LOOKUP_TABLE default
-0.000511884729728686
-0.001535314133989205
-0.0010606233824571082
-0.0010119868262577852
-0.0014610082495558477
-0.00169495195835034
-0.0018706793171142718
-0.0019887731489336012
-0.0020783018062426944
-0.0021638595521072017
-0.0021938652882836263
-0.0022659132063556375
-0.0023223708113556114
-0.0023685949318179573
-0.002402079231641117
-0.002459255679615612
-0.0024826987537461286
-0.002507073016008367
-0.0024911631575682005
-0.0025165485730718603
-0.0025428688365417757
-0.00256089570747763
-0.002573708611675802
-0.0025929004247289274
-0.002606413497060023
-0.0026060443491461817
-0.002599284303386395
-0.002601384266661998
-0.0026141984291643302
-0.00263342795952024
-0.0026496466418813873
-0.0026665102427185818
-0.002687246833668678
-0.0027152914279209616
-0.0027453111273235942
-0.0027631689036943775
-0.002775523097989446
-0.0027881174624795413
-0.0028160256888101636
-0.0028488602303715013
-0.002878679221765998
-0.0029084241653923445
-0.0029377754535032485
-0.002960761689427485
-0.0029833798254347388
-0.0030112316597362475
-0.003047313201453213
-0.0030875333295576498
-0.003123740075502823
-0.003155765513748966
-0.003182913916090057
-0.003203092464795344
-0.0032199166175753
-0.0032397059533830373
-0.0032658077404128186
-0.0032943889856226027
-0.0033209821375559463
-0.0033420644026386365
-0.00335455948179383
-0.0033532324288123713
-0.0033389432957449112
-0.003321357928670126
-0.0033089521074470174
-0.0033001490397114456
-0.0032904318786818004
-0.0032764898504016745
-0.0032565224962290314
-0.003229868723226159
-0.003192691134543546
-0.0031409524074315995
-0.0030705135081581457
-0.002983423619401758
-0.002886514785496076
-0.0027850384322105604
-0.0026751099872505805
-0.0025477235036706625
-0.002397337597650622
-0.0022217429886556717
-0.002018853696862234
-0.001790240505976606
-0.0015462023436962772
-0.001294360458159436
-0.001036608683253777
-0.0007712318345924094
-0.000493695530693797
-0.00013570673156704284
0.00027378026180076385
0.0006456757730550889
0.0010246926413095814
0.0013933314812954985
0.0017339326053426782
0.002035321198303947
0.0023033947303499093
0.0025453466756244726
0.0027624505492692755
0.002946961787935943
0.0031006015499140185
0.0032344923422003282
0.003352076337001716
0.003434621765559791
0.0034601466188455667
0.0034268207385216532
0.003348769477078651
0.003238697363491414
0.0031009302302970423
0.002942968519886842
0.0027859557894000914
0.002648028537206024
0.002514518351630237
0.002353872923444567
0.0021618631471960453
0.0019598431119858084
0.001772941946934179
0.0016032593325290268
0.0014482564933184512
0.0013209937926440438
0.0012469395675702671
0.0012106786439325494
0.0011500010509479703
0.0010334775704198033
0.0008883193490676123
0.0007609931210473927
0.0006607545239010684
0.0005696229467492707
0.0004865396794259486
0.00044549593412311595
0.0004697786737305207
0.00047125300279566575
0.0003700606585072875
0.00020884902209853057
5.416201246555003e-05
-4.2941864553401323e-05
-0.00012545871213979484
-0.00018275571348620842
-0.00013253647604103292
-2.150080168390108e-05
-0.00014795472176071402
-0.0003528669265183298
-0.0004179298167879807
-0.0004599552246060671
-0.0005139052442739169
-0.0005800901230879968
-0.0006520846475303111
-0.0006252678827883262
-0.0004054436004896923
-0.0003647429330252838
-0.0005690109442768004
-0.000746384897212519
-0.0007948076512440415
-0.0008306849116648436
-0.000900281350537484
-0.0009210347110081672
-0.0009011777075403416
-0.0007923820608220154
-0.0007919434882393327
-0.0008466197679343982
-0.000904185126552209
-0.0011095912239140484
-0.001092709808099928
-0.0010832645686239734
-0.0011734692709435006
-0.0012641876070390908
-0.001228535008866113
-0.0012151040854556584
-0.0013903054785037398
-0.001424804318256588
-0.0014371917640124594
-0.0014274849096517466
-0.001429634864156003
-0.0014557894926134143
-0.001659483141174767
-0.0016044235776565758
-0.0016941918816082123
-0.0016564455407287436
-0.0017707219379651479
-0.0017190159126529042
-0.0018281447243108364
-0.0018132855331670532
-0.0018105283326327972
-0.0019071381990245482
-0.0018078931790186257
-0.001942995509287163
-0.0016977651216926728
-0.001875830474012232
-0.0016225135892297625
-0.0019090934918298541
-0.0016259722279091105
-0.0019856343253428924
-0.0016861051038658662
-0.0022109268396121404
-0.001679809872467006
-0.0017748997146291381
-0.0017206519442555471
-0.00158517470237666
-0.0014624591699334152
-0.0013071872375637248
-0.0012639065286676426
-0.001130751867071206
-0.0010952218729393087
-0.0010188799927035037
-0.0011045584841516143
-0.0008799486057049225
-0.0003023568382902376
0.0003629305026732263
-0.0006423806617799799
-0.00024859865803749455
0.00024096289181404612
0.0008253318998588358
0.001000574604165583
0.0010948881656488347
0.0021378290775942253
0.0029608324884248935
0.003000702992096893
0.002946304730003133
0.0030987595187331888
0.0033007892767461925
0.003520617427029543
0.003845997701015538
0.003178706938284529
0.002638672741906643
0.0027802687264549875
0.002975340553226976
0.0028729609876410214
0.002528284559365445
0.0023682310351245055
0.002198906635317599
0.002230500263145673
0.0022689275884599847
0.002361621989597247
0.0022343167055054606
0.002326982302754381
0.0022062285870548554
0.002130949509289377
0.0022616391459574117
0.0019317879726317446
0.002071289582516486
0.0018184048754531137
0.0019368104549745057
0.0017618759303867737
0.0018347601939970965
0.0016883549188374686
0.001701112861801108
0.001627618884692024
0.0016893826812786842
0.001632026767966966
0.0016493584513019254
0.0016428186400369172
0.0016124977567430583
0.0017340914501965947
0.0017047132738312117
0.0018486295443825925
0.001686491907320872
0.0018138089178672216
0.0017388274818575368
0.0017615929405162224
0.001756254703817522
0.001745171644221871
0.0017284854955740498
0.0016685106142330197
0.001534712475887194
0.0014929540362765645
0.001594591252274326
0.0014986540899550888
0.0014639448017922387
0.0015178593755982614
0.0015398125483163053
0.0013893340147636086
0.0013825319082166577
0.001436550687849746
0.001369934659088149
0.001346362474696521
0.0015910370538020678
0.001539338759944689
0.0014715419476348348
0.0014512289417481941
0.001298606768589218
0.0011068613561930468
0.0011188311961405047
0.0012442536609018498
0.0013607103155806866
0.0013771653215793817
0.0013326661970660546
0.0012886753316459706
0.001255716719937258
0.001237542121947909
0.0011564486926368914
0.0009633654571910186
0.0008335320817730094
0.0008191458104645295
0.0009515363863243232
0.0010175819701092872
0.0009682251240973968
0.0008922011693781752
0.0007990957280311413
0.0006428298801248883
0.0004779780545612252
0.0003791687606850742
0.00038743872303716913
0.00041592869072503005
0.0003727089970275325
0.00027498060933642244
0.0001589375250197118
1.8649801668206923e-05
-0.00013551249239907682
-0.00026623600115376896
-0.00034853153879632447
-0.0004078613054177764
-0.0005048415881966705
-0.0006591341446174119
-0.0008498618337792561
-0.0010664026817858137
-0.001310409028470337
-0.0015864624470314907
-0.0018909860246336065
-0.002202394309689404
-0.002498210951437286
-0.0027766041058962174
-0.0030608812632561436
-0.0033590292831467785
-0.003647084694643663
-0.0038973122073293247
-0.004092908375116843
-0.004221390481949606
-0.004273114857100405
-0.004254504004613019
-0.004186854309810375
-0.004082111410293594
-0.003934078767302
-0.003732934649825142
-0.0034799845851293965
-0.0031835723452109644
-0.0028523367432643537
-0.0024859336788137947
-0.0020790414974482347
-0.0016304836292619555
-0.0011561186631887399
-0.0006775950804539856
-0.0002096581212499858
0.0002996922392108334
0.000734862112183538
0.0010732555968137908
0.0013904736902133675
0.0016889247091
0.001970595252658103
0.00223410793893689
0.002471926473673769
0.0026735592581968513
0.0028376853715007555
0.002964758014382528
0.0030561613420101654
0.0031209362372934
0.003175151208207998
0.0032255496304936697
0.0032662574241277866
0.0032908915106908848
0.0033013943431152524
0.003302823913282102
0.0032974172529426724
0.003284845946770768
0.0032696694835864923
0.0032590013990532445
0.0032610251895818097
0.003271259978996719
0.0032770461015389045
0.0032631526928642873
0.0032285140877192555
0.003179314990048286
0.0031192099267126306
0.0030564139335429313
0.00300102692617617
0.002950734711797754
0.0028938846722295435
0.002827337678456713
0.0027566831718787927
0.0026875951481726257
0.002621731861760572
0.002555647481051066
0.00249149740965828
0.0024403312627390874
0.002407350487428988
0.0023770557348174086
0.002337188927130495
0.002288774169792267
0.0022413481766450374
0.0021957540364611655
0.0021473557642710324
0.0020963993423487428
0.002059422713756647
0.002051196176929273
0.0020477234809444605
0.0020389043448396193
0.0020147365854997702
0.001995925885899398
0.001990724505284723
0.0019919090060024325
0.0020146717295694326
0.002060151439333739
0.002133002712876135
0.00215323387304714
0.002189608146850148
0.0022437017441195445
0.002303502389412644
0.0023596433961459834
0.0024021338789984932
0.002443046140869313
0.002480028782570525
0.0025606668627075058
0.0025764757037600463
0.0025902864734192025
0.0025497229776097427
0.0025126567367162885
0.002453902408276221
0.002380394993662394
0.00226857267131881
0.002206692262851355
0.0020650344210487977
0.0019060984019963843
0.001715852259207853
0.001474499162577809
0.0011704151141619045
0.0006975703469697092
0.0006335547369302799
0.0011006452022590547
-0.0008601765350759276
0.00020977946891520663
0.000596452614782138
0.000545971834550721
-0.00019104093587439698
-0.0007939429925893915
-0.0009837555261633746
-0.0005871815536025405
0.0031584960298524914
-0.0010387956327361767
-0.0009846246356639986
-0.001319773425198951
0.004591440652604938
-0.0015767017651987898
-0.0017296243271018598
-0.001765665674758752
0.0030057990975913247
-0.001881154564346581
-0.0015490683584158658
-0.0019905157108965235
-0.003490433538913765
-0.002074341022222147
-0.001462917277604714
-0.0021532284525841196
0.0028820434916684537
-0.0022299185941244805
-0.0007511329181686417
-0.002281499555329953
0.005036838189085802
-0.0023313943144643028
-0.0010807658848153976
-0.0023758328414464486
0.002794710204534546
-0.0024120935599278004
-0.0005414640003468283
-0.002453228949652456
-0.003230748637490423
-0.0024771105627619367
-0.0008257895667821309
-0.002494865031017111
0.002644702278190811
-0.002514439933850401
-0.0005253474978825556
-0.0025233500810332454
0.005064019247645684
-0.0025415296096218077
-0.0007518409587739829
-0.0025585578364984984
0.002486141711282218
-0.002577258959819686
-0.0006789146257816408
-0.0025950554946095644
-0.003125503814733201
-0.002597021081581189
-0.0008602177166659577
-0.0025932820418281192
0.0023047787502337267
-0.0025851767813991518
-0.0008823722159679941
-0.0025935651361491912
0.005149118746986579
-0.0026092208689668683
-0.0008504377608309888
-0.0026252481188094308
0.002195998928648684
-0.0026409580305033794
-0.0008561279486869585
-0.002658755329162047
-0.0027821830750797143
-0.0026805890623866897
-0.00082881793352456
-0.0027124977307561933
0.0021097167421056085
-0.0027400361000046135
-0.0008033890709670052
-0.002756967939046219
0.005261798683670428
-0.0027674718506905467
-0.0006595490662577382
-0.0027840267575207837
0.002036348852451836
-0.002813625001567801
-0.0007445956480306975
-0.002845566456345532
-0.0025080880853143466
-0.0028753926120563475
-0.0005578791166758208
-0.0029068132687557965
0.001972972498130354
-0.002934882641111336
-0.0007235333538810733
-0.0029588205769424487
0.00524340768670946
-0.0029835596074611072
-0.0004416384791297404
-0.0030145780198203055
0.001993386764691828
-0.003052769456549744
-0.000689228404956731
-0.003092016271031832
-0.0028568129123713506
-0.003127821770345711
-0.00044588760611657084
-0.003160952788330356
0.002033592634215228
-0.0031877437038667794
-0.0006650548522331382
-0.003208129314452176
0.005300165070621331
-0.0032268218634114924
-0.0004996639080879098
-0.003248886127571839
0.0020492032785576946
-0.003276408422161765
-0.0006837988055136796
-0.0033047984321383497
-0.0027773770444419945
-0.003331039030407407
-0.00045240162096254593
-0.0033523595474846063
0.0019283670596480713
-0.003362741231956719
-0.000726580490869677
-0.0033587220658934003
0.005124556577452599
-0.0033438871788162195
-0.0003772795403971202
-0.0033279303222444848
0.001820219246335075
-0.003315964075637834
-0.0006719519773135713
-0.0033064853586926243
-0.002553985802105906
-0.003296321137107753
-0.0004021610513916656
-0.0032828657383649072
0.0017257629081306582
-0.0032632265288943195
-0.0006243512016747947
-0.0032364485594950053
0.0040758910924903365
-0.003198663790321684
-0.0002326076931426953
-0.0031442135509634163
0.0017300594357582565
-0.0030704229716001542
-0.0005580288733632341
-0.0029814392489396512
-0.002451253000300227
-0.002884539001616962
-0.00015191593901042923
-0.002783893914624886
0.0017229734286503056
-0.002674385491413293
-0.0004275134862994985
-0.0025462256447384415
0.004972705560023822
-0.0023938807169038125
-0.00012388200339495578
-0.0022153726150642627
0.0017268116623267071
-0.002007061813478271
-0.0003315352402787298
-0.0017754742170597066
-0.002239211124721439
-0.001530409773639013
-0.00012282364242662162
-0.0012792886816567802
0.0018226517070354775
-0.001021716638080725
-0.0002655782941290957
-0.0007550969619730539
0.005461638438776834
-0.00047957906596251306
-0.0001479367403882231
-0.00014053011144984004
0.001785421719864003
0.0001983366507487251
-0.00011254448491448748
0.0005717551777829731
-0.001788744285741168
0.0009496252376946767
2.4760958636397846e-05
0.001320743173297821
0.0018925218819610832
0.001667262360927592
-2.294887242604082e-06
0.001974653378843844
0.004794336837447007
0.002244254130918254
-0.00012673146263432074
0.0024850946978881372
0.0018450889725230048
0.0027021969795457627
-6.747417247226417e-05
0.00289049553662068
-0.0011677542409232007
0.003046245873856913
7.634988659764179e-05
0.0031777346539902194
0.0017314079986863451
0.003293389811001856
0.00026934595807180764
0.0033811813439119853
0.0051806681111267235
0.00341695762701337
0.0002738755042025931
0.003390204880557145
0.001553659726360458
0.0033124752612873395
0.0002687210155037662
0.003201124829815652
-0.0013207887800366365
0.0030651320000683506
0.0002308346212549117
0.0029107655229104754
0.0014821563499237936
0.002748763640278575
0.00020917952647886402
0.002600925602561456
0.004498194649309741
0.002465472153023242
0.00020054722276713078
0.0023136885108581895
0.0015089115185468645
0.0021272921914643824
7.695141694472702e-05
0.0019231123350431337
-0.0009802201254738845
0.0017285551808867833
8.75418800100836e-05
0.0015578586751604862
0.001669101708569532
0.0014065767834008556
0.00011826634381113316
0.0012792827720230766
-0.001831857937047034
0.001190220163154399
0.0003366148572817194
0.0011447973551350413
0.0015892679212487551
0.001097148706544279
0.0005840081865359716
0.0009957800232012278
-0.0007577245042134405
0.0008586729056382377
0.0005379277023968184
0.000723086424292485
0.0016971910630711208
0.0006237677747534523
0.00039661612826390175
0.0005407489817426819
0.004724345331066144
0.00047046093113071286
0.00044911293740790867
0.00042511999279568584
0.0017465640894753838
0.0004307410386543032
0.0003055994141496074
0.0004466985176271074
-0.00024480494060916136
0.000360929016292337
0.0002845628518926548
0.0002247678249284255
0.0013930765961780855
7.489736889320359e-05
0.00029372663026148733
-2.1188369516634303e-05
0.00534429768543985
-8.607114772422224e-05
0.0002999085934298266
-0.00013226037891589355
0.001327089446023709
-8.410370546993576e-05
0.00028616324193658175
-1.1259881026245833e-05
-7.693092954311147e-05
-5.875131662173433e-05
0.0004988991227288717
-0.000226156089719707
0.0013466726955714168
-0.0003353609905817007
0.000609688666253003
-0.0003614334222100879
0.004630286532597036
-0.0003994364422002608
0.0005471747316295456
-0.00044226964757434323
0.0013448438386081609
-0.0004823811248836316
0.0005534103022806078
-0.0004086790552924252
0.00018360947727535517
-0.00035258487619474536
0.00046371860384996066
-0.0002543553526743068
0.0014144499310080089
-0.0003397101247433136
0.00047982038544747575
-0.0005365669999120873
0.004580729175354043
-0.0006343878266807645
0.0004973785993494831
-0.0006411910376802917
0.0016380270924156093
-0.0006818914617958006
0.000629157345389129
-0.0006452047736498435
0.0006032316561991982
-0.0006311685016960174
0.0007495088094976785
-0.0006126071563591114
0.0014452371638777883
-0.0005357290619154481
0.000895527062154381
-0.0005615219420897449
0.004540445155718731
-0.0005623260351392457
0.0009068977260066962
-0.0008130955911639713
0.00146604863501439
-0.0008534350730386344
0.0008677603406760545
-0.0008260274505781425
-0.0034496353035491536
-0.0008440605562712537
0.0008307247814905311
-0.0008345443334703028
0.001481377692110689
-0.0008891567179031574
0.0008675329972064744
-0.0009062248856335496
0.005441177387466628
-0.0009920596659538827
0.0009128127379122243
-0.0009766672369487311
0.001607936153763944
-0.001087827637917826
0.000965494793095281
-0.0009758715810756839
0.0008509800208490137
-0.0010740758607936283
0.0010331553379544622
-0.0010403704040523704
0.0012047710902150523
-0.00115074576116118
0.001163566883138437
-0.001199494589671279
0.004593868443411327
-0.0011936265605589534
0.0012734517606899675
-0.0012257056238412242
0.0011555171617254202
-0.0012575676572684524
0.001361488854141166
-0.0012715249257127582
0.004271960355692104
-0.0012956240362684399
0.001376925885461947
-0.001314770832243395
0.0010135654198412424
-0.0012785320284006798
0.0014191198369742084
-0.0013745120190093018
0.005342305386433121
-0.0012677739476130761
0.001504490632461124
-0.001277873557938793
0.0012556936402280117
-0.0011605577394159282
0.0016126435687782612
-0.0011334914515975408
0.0010072775728726987
-0.0010795710178295385
0.0017433091917091078
-0.0010912209543242238
0.0012002126238805965
-0.0010560803620535424
0.0018970726690774459
-0.001084790449509743
0.004538667068957575
-0.001058027642492715
0.002084735681078041
-0.001023038291213468
0.0011272354908699344
-0.0009882979469253137
0.002274111435330456
-0.0009278747508470553
0.004436842931296816
-0.0009043344065510528
0.0024421340420344674
-0.0006936204526217666
0.0010624542345313863
-0.0006145454206064368
0.0025793091199946693
-0.00039779904532893077
0.005486355270580277
-0.0003190190087343783
0.002718162443554743
-0.0001908012039308967
0.001130991447645358
-0.0001299770476403272
0.002875060416056823
-0.0001280751725308895
0.0007838775665293316
-0.0001497260234526442
0.0030334976557241725
-0.0001459540182647066
0.0012092732446454158
0.00012019091939173367
0.0031816457195762158
0.0003686062112314572
0.004619243627212279
0.00020961507327471365
0.0033108973085778422
8.808015947066304e-05
0.0009117909154962876
0.00023302011684354234
0.0034196746080856384
0.0005908917629663494
0.0009495054100684721
0.000910933349971114
0.0034897213802698598
0.0008984592287433719
0.0009794732366537509
0.0019298866200678298
0.003507321563776782
0.002950760457795653
-0.001692024629007896
0.002931339242246358
0.003466699336657063
0.002947224122485872
0.0005317374757019729
0.0032266643848492533
0.003385235803597002
0.003430917534056083
0.0013485266923995232
0.0035556865378250733
0.0032811442426206416
0.0033340432161636986
0.0007482841547173951
0.0031610201328449287
0.0031535542975493474
0.002989906977252671
0.0046025298049083814
0.002721681412682828
0.0029922301214482137
0.002628541731835262
0.0006971325517433932
0.0022910166183171413
0.002797653374497185
0.0019913460684830324
0.0014911207934974681
0.0017579655504047075
0.002575223486284907
0.001627904853385277
0.0006109199274991724
0.001666706255820734
0.0023282245776764096
0.0017112468786285365
0.0053092951271325245
0.0018619427873743026
0.0020526417373477658
0.0017782825581420729
0.00038846018925399185
0.0018850307581409363
0.0017409261041942147
0.001813997072137318
0.0013902305599806373
0.0018722957874005488
0.0013971570321788726
0.0017663580612913817
-0.0023091749190267317
0.001766652525688603
0.001034750744179273