# vtk DataFile Version 1.0
GRUMMP topologically 2D mesh
ASCII

DATASET UNSTRUCTURED_GRID
POINTS 6176 float
  1.0000000000000000   0.0000000000000000   0.0000000000000000
  0.9979736161243241   0.0002872981906159   0.0000000000000000
  0.9959038003591104   0.0005818082753016   0.0000000000000000
  0.9937894604158818   0.0008826109490225   0.0000000000000000
  0.9916311447855282   0.0011889740049165   0.0000000000000000
  0.9894256878168368   0.0015011074645448   0.0000000000000000
  0.9871732566523234   0.0018189104108560   0.0000000000000000
  0.9848739492731372   0.0021423104928037   0.0000000000000000
  0.9825241245750710   0.0024717658271048   0.0000000000000000
  0.9801244133260449   0.0028071825305054   0.0000000000000000
  0.9776732769852096   0.0031487906039340   0.0000000000000000
  0.9751690039483889   0.0034968357351786   0.0000000000000000
  0.9726117072730877   0.0038512643819321   0.0000000000000000
  0.9700001180350898   0.0042121148976419   0.0000000000000000
  0.9673332227148538   0.0045793859121594   0.0000000000000000
  0.9646079236541195   0.0049533708962095   0.0000000000000000
  0.9618249648196705   0.0053338679490647   0.0000000000000000
  0.9589807878895711   0.0057213439443832   0.0000000000000000
  0.9560767311296049   0.0061156062701256   0.0000000000000000
  0.9531120216710255   0.0065167463399167   0.0000000000000000
  0.9500819018783057   0.0069253778138591   0.0000000000000000
  0.9469876484068450   0.0073412143029309   0.0000000000000000
  0.9438286210030068   0.0077641908681895   0.0000000000000000
  0.9406001269296587   0.0081947829660712   0.0000000000000000
  0.9373041277084813   0.0086325757434285   0.0000000000000000
  0.9339368121646437   0.0090779560824189   0.0000000000000000
  0.9304976431076690   0.0095309377793780   0.0000000000000000
  0.9269838874379289   0.0099918267186165   0.0000000000000000
  0.9233965242394278   0.0104604374002928   0.0000000000000000
  0.9197323684717913   0.0109371203977286   0.0000000000000000
  0.9159901296799260   0.0114219111797446   0.0000000000000000
  0.9121662515702946   0.0119150917142392   0.0000000000000000
  0.9082612640703632   0.0124164093968364   0.0000000000000000
  0.9042711890176098   0.0129261849544228   0.0000000000000000
  0.9001985925103467   0.0134439182275261   0.0000000000000000
  0.8960367883853674   0.0139703538547480   0.0000000000000000
  0.8917881131106570   0.0145051006126241   0.0000000000000000
  0.8874465968544013   0.0150488093430172   0.0000000000000000
  0.8830132689405343   0.0156012428338051   0.0000000000000000
  0.8784843643309772   0.0161627200549514   0.0000000000000000
  0.8738585592690924   0.0167332093564690   0.0000000000000000
  0.8691331845657406   0.0173128340473851   0.0000000000000000
  0.8643080629784704   0.0179014022230632   0.0000000000000000
  0.8593790220315882   0.0184992057974382   0.0000000000000000
  0.8543443022105112   0.0191062525475961   0.0000000000000000
  0.8492020742372332   0.0197225542022908   0.0000000000000000
  0.8439504592998461   0.0203481184762133   0.0000000000000000
  0.8385847225217766   0.0209832807547837   0.0000000000000000
  0.8331043690503205   0.0216278714070098   0.0000000000000000
  0.8275075883744546   0.0222818740978654   0.0000000000000000
  0.8217896079901662   0.0229456038551552   0.0000000000000000
  0.8159499389768221   0.0236188617887649   0.0000000000000000
  0.8099850870934132   0.0243017702717010   0.0000000000000000
  0.8038929332928342   0.0249942623102002   0.0000000000000000
  0.7976697970229181   0.0256964297179088   0.0000000000000000
  0.7913134730328051   0.0264081777898121   0.0000000000000000
  0.7848218596203610   0.0271293903098903   0.0000000000000000
  0.7781898173908960   0.0278602762976724   0.0000000000000000
  0.7714169256365310   0.0286005013921829   0.0000000000000000
  0.7644979701754163   0.0293502351726533   0.0000000000000000
  0.7574308659438134   0.0301093068082177   0.0000000000000000
  0.7502135053150701   0.0308775557618342   0.0000000000000000
  0.7428404612557281   0.0316551512399728   0.0000000000000000
  0.7353096164115749   0.0324418730798164   0.0000000000000000
  0.7276172963491144   0.0332375368705936   0.0000000000000000
  0.7197598859172740   0.0340418579688506   0.0000000000000000
  0.7117355290536627   0.0348543282856948   0.0000000000000000
  0.7035389878799579   0.0356747811793425   0.0000000000000000
  0.6951650952820780   0.0365031090698871   0.0000000000000000
  0.6866122709923126   0.0373388258653197   0.0000000000000000
  0.6778754950330185   0.0381817369178559   0.0000000000000000
  0.6689534383202176   0.0390312029136988   0.0000000000000000
  0.6598376964403885   0.0398871771799410   0.0000000000000000
  0.6505290121117546   0.0407486821288951   0.0000000000000000
  0.6410191910005383   0.0416153892989160   0.0000000000000000
  0.6313056496470314   0.0424862165552765   0.0000000000000000
  0.6213823079172336   0.0433602824420315   0.0000000000000000
  0.6112489281649386   0.0442362457646169   0.0000000000000000
  0.6008963123926909   0.0451137308907019   0.0000000000000000
  0.5903211292528141   0.0459917803130241   0.0000000000000000
  0.5795184839365645   0.0468692540951747   0.0000000000000000
  0.5684857150099230   0.0477443424041717   0.0000000000000000
  0.5572148862675538   0.0486154402631608   0.0000000000000000
  0.5457024491672809   0.0494805599680832   0.0000000000000000
  0.5339780836677636   0.0503353194116202   0.0000000000000000
  0.5219860728183490   0.0511813660693644   0.0000000000000000
  0.5101253307512127   0.0519891081313360   0.0000000000000000
  0.4985043971600128   0.0527514649709832   0.0000000000000000
  0.4871181100865982   0.0534694955937708   0.0000000000000000
  0.4759663238182478   0.0541439373921026   0.0000000000000000
  0.4650424897306392   0.0547759224024376   0.0000000000000000
  0.4543414694194311   0.0553665338532900   0.0000000000000000
  0.4438615277983380   0.0559167464857066   0.0000000000000000
  0.4335966445555638   0.0564277439227250   0.0000000000000000
  0.4235422171719039   0.0569005367499369   0.0000000000000000
  0.4136931783754329   0.0573360485787389   0.0000000000000000
  0.4040479201781875   0.0577350333573017   0.0000000000000000
  0.3946007843384192   0.0580984587592611   0.0000000000000000
  0.3853459130056055   0.0584273588583778   0.0000000000000000
  0.3762828394437238   0.0587225582688298   0.0000000000000000
  0.3674052759622001   0.0589850521268143   0.0000000000000000
  0.3587104110044708   0.0592156767487264   0.0000000000000000
  0.3501952433465900   0.0594152538281565   0.0000000000000000
  0.3418548081050912   0.0595846279097528   0.0000000000000000
  0.3336858663230149   0.0597246577421592   0.0000000000000000
  0.3256868701986138   0.0598362486465025   0.0000000000000000
  0.3178507769372301   0.0599203474438374   0.0000000000000000
  0.3101776523444911   0.0599777679649948   0.0000000000000000
  0.3026620994593082   0.0600092896252224   0.0000000000000000
  0.2953022098091474   0.0600156089816429   0.0000000000000000
  0.2880942515540157   0.0599974067416477   0.0000000000000000
  0.2810344582773878   0.0599553507162620   0.0000000000000000
  0.2741224198462300   0.0598902308958287   0.0000000000000000
  0.2673508102792782   0.0598027829062179   0.0000000000000000
  0.2607208372897423   0.0596938009430880   0.0000000000000000
  0.2542268737219818   0.0595639532054747   0.0000000000000000
  0.2478699323930078   0.0594139942796022   0.0000000000000000
  0.2416426526986943   0.0592444560641495   0.0000000000000000
  0.2355443386744786   0.0590559928562533   0.0000000000000000
  0.2295742285057687   0.0588492600763349   0.0000000000000000
  0.2237267309732288   0.0586247739586633   0.0000000000000000
  0.2180011540540604   0.0583832555000465   0.0000000000000000
  0.2123936096745636   0.0581252700988444   0.0000000000000000
  0.2069018249031851   0.0578514118247249   0.0000000000000000
  0.2015265925874962   0.0575624139311738   0.0000000000000000
  0.1962639217171782   0.0572587327640815   0.0000000000000000
  0.1911098627978642   0.0569407701058159   0.0000000000000000
  0.1860635373512509   0.0566090833477142   0.0000000000000000
  0.1811225555455632   0.0562641183158228   0.0000000000000000
  0.1762831066659017   0.0559062017034564   0.0000000000000000
  0.1715472965099615   0.0555361405439852   0.0000000000000000
  0.1669099315072494   0.0551541804881659   0.0000000000000000
  0.1623702175183220   0.0547608759938091   0.0000000000000000
  0.1579259317985442   0.0543566416724963   0.0000000000000000
  0.1535748664842349   0.0539418626674859   0.0000000000000000
  0.1493147619729656   0.0535168899310313   0.0000000000000000
  0.1451447283274916   0.0530821904592715   0.0000000000000000
  0.1410625235604109   0.0526380756497570   0.0000000000000000
  0.1370659530359299   0.0521848322503466   0.0000000000000000
  0.1331567814638518   0.0517231967360234   0.0000000000000000
  0.1293276562313525   0.0512528455259629   0.0000000000000000
  0.1255804504092525   0.0507745502773552   0.0000000000000000
  0.1219131281255899   0.0502885988465475   0.0000000000000000
  0.1183237015509818   0.0497952534010120   0.0000000000000000
  0.1148102318092792   0.0492947513229479   0.0000000000000000
  0.1113720175725520   0.0487874812015910   0.0000000000000000
  0.1080070759532941   0.0482736140267307   0.0000000000000000
  0.1047146335147149   0.0477534816268928   0.0000000000000000
  0.1014927513745349   0.0472272179600503   0.0000000000000000
  0.0983395479756496   0.0466949369878610   0.0000000000000000
  0.0952554508934213   0.0461571322873805   0.0000000000000000
  0.0922363866432952   0.0456135046927440   0.0000000000000000
  0.0892828700951544   0.0450645654218522   0.0000000000000000
  0.0863942718297865   0.0445106297655928   0.0000000000000000
  0.0835678320075330   0.0439515803137779   0.0000000000000000
  0.0808019575920066   0.0433874837688950   0.0000000000000000
  0.0780971710598979   0.0428188278852694   0.0000000000000000
[...]
POINT_DATA 6176
SCALARS continuity float
LOOKUP_TABLE default
-0.006432915073360669
0.0005237270656377995
0.0012648140791592197
0.0009178115322203024
0.0010095561211306173
0.0010800456382546438
0.0011362114732501776
0.0012244548357809987
0.0012970006581757702
0.0013727919856548526
0.0013663774164018939
0.0013973686054738054
0.001385574374756359
0.0013778898118238243
0.0013565297059562262
0.0014013400505974837
0.0014397324620429159
0.0014700198453194233
0.0014117674153564328
0.001378060087173874
0.0013366450939973475
0.0012949615201526047
0.0012472131546142212
0.0012316569172218287
0.001233716450096226
0.0012097337429035466
0.0011563152462532422
0.0010979636133776414
0.0010513514761302954
0.0010142682435723286
0.0009690541738816756
0.0009187424771672434
0.0008733552935750726
0.00085090671809987
0.0008554745153768125
0.0008493079769815599
0.0008301695738225546
0.0007934435869878151
0.0007769363951649082
0.0007714818021823197
0.0007639547256613206
0.0007599491301062779
0.0007700457986448987
0.0007868197361794194
0.0007934932200285642
0.0007770382901708116
0.0007482330089465312
0.000707878895112936
0.0006529109915504103
0.0005939700023605671
0.0005418577908525628
0.000501408427352275
0.00046035316600235156
0.0004007476965210283
0.00031467500625104937
0.00019242171799940263
3.887840532947603e-05
-0.00012854141628467514
-0.0002968679624987844
-0.0004519386339142451
-0.000583844790627017
-0.0007129153753392895
-0.0008721229149008631
-0.001076165740221243
-0.0013151458025258884
-0.0015683686344843423
-0.0018277163658668289
-0.0020986487698341403
-0.00237588615959133
-0.0026416199209501035
-0.00287793298872109
-0.003096341177918857
-0.003337518566094422
-0.0036311148410498773
-0.003958528954685683
-0.004267830040399848
-0.004526618131989776
-0.004727034695101636
-0.004873214754105477
-0.004979679023158768
-0.005077619637166414
-0.005184425650103749
-0.005289075042694021
-0.005384939864943637
-0.005479428771317841
-0.005436249611990149
-0.0051065726258148975
-0.0047437621472552665
-0.0043849857318185685
-0.00400897239336127
-0.0035907671713621856
-0.0031392860993755124
-0.0026651683220718482
-0.0021738920708557993
-0.0016688808729476729
-0.0011579083458333154
-0.0006509391737416555
-0.0001557604451000523
0.00032082226322202915
0.000763122803554687
0.0011535194090154222
0.0014882760226605665
0.0017651769217842824
0.0019875786170678025
0.0021545870911725993
0.002273671857575736
0.0023526814764735088
0.0024064940081371857
0.0024259978881954252
0.002395290204249888
0.00233111748819252
0.002257809915141015
0.0021924765762930194
0.002132370010453475
0.0020769787376852043
0.0020389124400508837
0.0020380221398176176
0.00205522547840718
0.0020248126159039246
0.001931870228161938
0.0018335136002933245
0.0017645749228577398
0.0017159767609065289
0.0016564228180171606
0.001593837575602379
0.0015779313294334732
0.0016320828955842437
0.0016261874667806051
0.0014609802177218694
0.0012455063578484008
0.0010845901674799766
0.0010222727276784167
0.0009608750184475158
0.0009223828668256526
0.00101488888294777
0.0011380404737891753
0.0008296182126943472
0.0005027214861006552
0.0004906815671817405
0.0004840043071890045
0.00041713044771331714
0.00033169116214950254
0.0002695931776375589
0.00039046224001532847
0.0007245682385236378
0.0006267322014587226
0.00027735688960087623
3.9586138076097726e-05
8.988712738931691e-05
0.00011880325777114995
5.520189607487508e-05
0.00011928919402395986
0.0002812939195727832
-4.165101065747047e-05
0.00032885352159762695
0.00010732157303314712
0.00020211741376472068
-0.00010691788258986664
0.0001256260737040611
0.00023034461271356912
9.493263835606429e-05
6.722200984443424e-05
-0.00019454960460943839
0.00024935016294297846
-0.00017416941016132673
-8.838027482551482e-05
-9.868875918628488e-05
4.522765611366977e-05
-0.00010568300430969542
-0.0002575441614121804
-0.0006425126518713743
-0.00014685852290859515
-8.96040817928728e-05
0.0002245531807606553
9.541891617691545e-05
0.0003670494407508817
0.00024893947637537133
0.00035304228607796993
0.0005841112544950127
0.00019014693075807722
0.000619861476924419
-0.0001124113685010906
0.0006613188039252202
-3.620586515375658e-05
0.0007365693909459887
-1.927587943037552e-05
0.0008924164869912927
5.3200491754169935e-05
0.000994849525680614
-0.00016389263144933402
0.0013775224149254165
0.0012773655983781952
0.0018828485543864696
0.0021353620219620954
0.002271083055954986
0.002347982180752025
0.002607852125583613
0.002903801747381386
0.0031421848493263824
0.003371523263510051
0.0035599562375861816
0.00382130719770629
0.00416916334805204
0.00442995643592002
0.00375885769937959
0.005131083938632189
0.004189047725253166
0.003545454051169735
0.002951720666702688
0.002088521745490984
0.0013929885820916424
0.00013184256392491316
-0.0012404365361438172
-0.0025700015846057715
-0.003939095596321074
-0.00506471307472747
-0.005331671005586061
-0.007349224018010649
-0.006869646328116855
-0.007849800261692267
-0.00830754434276809
-0.008444473316150026
-0.008593717319105954
-0.008692012654746657
-0.008647711189149445
-0.008644877473697812
-0.008128464594967811
-0.007441472806808014
-0.007241095058480954
-0.00628597552457148
-0.006492194916910151
-0.005738219995661479
-0.005538096166225593
-0.005018092952949789
-0.004940836718949716
-0.004578313001085608
-0.0042733387116550585
-0.0038136616923402427
-0.003406165459125035
-0.0029850221230888186
-0.0025181832679732788
-0.0022012614893310713
-0.0019190572294149034
-0.0019775102744289106
-0.0014446709005902776
-0.0013618269633171565
-0.0007666577672572883
-0.0005911611766404967
-0.000270863151205125
-2.2796978932900274e-05
-6.284074070517433e-05
0.00036009209885386824
0.0002845957786535029
0.0006352239388679223
0.0007151824343907714
0.0010081177817051722
0.0010080261639038059
0.0010759860556752098
0.001048033012765818
0.0013448920231660243
0.0009486411108473637
0.0012695957883420309
0.0013438262966440398
0.0013914796400716215
0.0012611011850612338
0.0011099078809001766
0.0013554680509655613
0.001226887383130469
0.001281182928239155
0.001569696794063251
0.0012475626648651705
0.001281714621983226
0.0011292027629521322
0.001024557917631472
0.0008548275242229522
0.0008892389672842802
0.001061436424830502
0.001090175182081708
0.0010256143161403318
0.0008161854448082863
0.000651643489553363
0.0005749396847106715
0.0005214705861216411
0.0004341614293381318
0.00030251965087567417
0.00023301602838378077
0.0003111435547966564
0.00035791849112738565
0.0003100243186772295
0.00011841371855087144
-6.202050180817946e-05
-0.00016551002946579038
-0.00024090799048832927
-0.0002926856209987554
-0.00025115770864832303
-0.00016687482218177212
-0.00015970908839533683
-0.0002787109415022971
-0.000434065424016576
-0.0005306742476875709
-0.0005674290567787517
-0.0005792173097205486
-0.0005459243439175434
-0.00046831963878595314
-0.0004059484426914335
-0.0004194843656756438
-0.0004873722288018521
-0.0005227770007876185
-0.0004810630865918075
-0.0003872392909580712
-0.00026357342758528046
-0.00010894920014014642
9.723040402624183e-05
0.0003707930701598946
0.0006897238213166896
0.0009994535457598657
0.001272437203425439
0.0015328039466804358
0.0018057544540426166
0.002068976392636414
0.0022911965911765367
0.002463864495384631
0.002573803371408251
0.002589665734890679
0.0024975610706607144
0.002320670343895257
0.002081133873637325
0.0017785214342613972
0.0014058230971749444
0.0009688800290269834
0.0004840269654882524
-2.8638249915593224e-05
-0.0005660972297636416
-0.0011511316557920037
-0.0018067281044170512
-0.0025201821476146815
-0.0032326053883017973
-0.0038664773398363315
-0.004580275275327814
-0.005292139553284171
-0.005681545562685405
-0.006013281212705194
-0.006325451740056324
-0.006620104648983717
-0.006886177772224489
-0.007116139085477627
-0.0073055244512697836
-0.007454968018201636
-0.00756401411725533
-0.007630281764040784
-0.0076535410074243665
-0.007637898654586212
-0.007605265356406187
-0.007571042137364656
-0.007528498576344334
-0.0074661911437101
-0.007387853632666537
-0.0072991533748855775
-0.007201256357083206
-0.007090082770349939
-0.006961580814289408
-0.006837425850624202
-0.006737367063464597
-0.006662668014553021
-0.0065811427717066264
-0.006466548590802161
-0.006313584796384722
-0.006130182987547166
-0.005918896403022383
-0.005698297155398981
-0.005494767995336867
-0.005311739922556412
-0.005123314681115487
-0.0049172085481300485
-0.0047072134757194534
-0.00450162293021086
-0.004297217906677696
-0.004091354947370041
-0.0038882583941762233
-0.0037133068313148776
-0.003582610704474021
-0.0034726921290990187
-0.0033632243288561326
-0.003253030826421279
-0.003146179417813216
-0.003040401353141221
-0.0029324120628937338
-0.0028309121267847794
-0.0027562647302824483
-0.0027031515953778794
-0.002671088375410135
-0.0026490293025694003
-0.002635330485639663
-0.002628576818460053
-0.0026248065581639074
-0.0026311773601143157
-0.002653716593687756
-0.00268557919743122
-0.002703139510911527
-0.0027789433517306406
-0.002826717987978162
-0.0028531489793684078
-0.002861914108755152
-0.0028471754188071478
-0.0028132234357279846
-0.0027304286235672543
-0.00266211894325048
-0.0025422869454747505
-0.0024143051424658077
-0.00224873754087077
-0.002063851191224847
-0.0018212795239373
-0.0015474934934416834
-0.0012950369500648754
-0.0010272679989944398
-0.0007700055482012372
-0.0004821408098134736
-0.00016402093441307813
0.00023464609307264996
0.0005137407262159687
0.0008654420115863118
0.0010134274229592001
0.00012406287558027677
0.0001427310340806118
0.0007131621579706329
0.0006457952182481133
0.0017255648144832516
0.003135213806879276
0.0019266878733806814
0.0009275289987562618
0.0005438090405893555
0.0028915180376921368
0.0009794713152213998
0.00296262008318908
0.0009960727832378571
0.0002896676415537718
0.00106146735521771
0.002747284387247961
0.001126585946854892
0.002869656301892557
0.001158881374888824
0.002744902320048992
0.0012414175933686046
-0.0021796494726290623
0.0013258911649502007
0.003081805311768914
0.0013863025574374801
0.002838542276077081
0.0014400776099756222
0.003457753647920288
0.0014285316194100404
0.0011125488656115049
0.0014139775201389285
0.003630895901564242
0.0014076058145803443
0.0028349376441725634
0.0013983775218164806
0.0035646077789476395
0.0014410362492997145
-0.0020773395296537697
0.0014708838848127839
0.0038240106108499545
0.0014823852532088778
0.0027270644412977487
0.0014716640090137114
0.0034012272218451405
0.0014106561761951448
0.0010533955017841652
0.0013585840539013059
0.00408391579522607
0.001315057152032797
0.00263709000222813
0.0012806167667704707
0.003444832025743118
0.0012742650730693725
-0.0024043464469331167
0.001252417229274305
0.0036720616084097647
0.00122075520826588
0.002509773258831071
0.001159319760289584
0.0030580609029943534
0.0011205404654164885
0.0013869268439497212
0.0010757569991091261
0.0033100008609348824
0.0010320179570489862
0.002463171220821574
0.00098382122659204
0.0024172960327285683
0.0009342168826976413
-0.002271329754535378
0.0008921929559801462
0.0027886609338639195
0.0008821125831117831
0.0024191635504796738
0.0008818116245166743
0.0021006318591987334
0.0008755139525440655
0.00016340887230090157
0.0008477338195406783
0.002633309452672925
0.0008151343649484311
0.002364178635221515
0.000800986153253994
0.0020293094688428794
0.0007933172580938732
-0.0020822482912672023
0.0007854516920228245
0.002620633259941986
0.0007850247051334265
0.0022919461898298302
0.0007982835296166251
0.0018862663300302355
0.0008122805651244832
0.0016795676167486117
0.0008154604107597762
0.0028199822337837124
0.0007966113510782322
0.002325094233231457
0.0007660977588482424
0.0019527696607746425
0.0007230758313227212
-0.0024873445175254477
0.0006707374370801026
0.002926701491969078
0.0006159305807735499
0.0023811039097788233
0.0005673706625276343
0.002146766952245067
0.0005270387384502669
0.001046469176546314
0.0004824309285901292
0.002853397543626504
0.00041762612674824747
0.002438122621646133
0.00032374596822516157
0.0018580166446096977
0.00019529979046471166
-0.002543901695131671
4.180703407825451e-05
0.002749163145335222
-0.0001245204150882313
0.0022638189956167656
-0.00028946426637688205
0.0016546796601856785
-0.000436966304973445
0.0016041066986814262
-0.0005681826459611219
0.0026359522117035466
-0.0007047667476754571
0.0021420123264922967
-0.0008747083150722233
0.0017277163726192874
-0.0010858118053184162
-0.002524153167601251
-0.0013237628858274672
0.0022624303429584127
-0.0015752638882527337
0.002007081108199799
-0.0018366341106179553
0.0015650935942969216
-0.0021088406361356397
-0.002589867696950276
-0.002383165348846624
0.0022709115986999325
-0.0026387641499444944
0.002015505529752205
-0.0028645804222791837
0.001270867054863148
-0.0030852716349875874
-0.002500045410730388
-0.00333988381547807
0.002137597821752
-0.003645663102060466
0.001979658422040146
-0.0039717376194191465
0.0013018860494746864
-0.004269253493155519
0.00152675732847588
-0.00451477743865809
0.002254084230826724
-0.004701719309305943
0.0019306616329450449
-0.004833793195811726
0.0014771464311246782
-0.004936386603288909
-0.0025134799180226964
-0.005038689001519014
0.0020539453593035484
-0.005147813253171862
0.002018018568427684
-0.005245675267276018
0.0013680271687008384
-0.005332988849285666
0.0008314476990514445
-0.005420360399737876
0.0012582196392912093
-0.0053202461126947145
0.00212753764645941
-0.005053656672909176
0.0013174610235500294
-0.004676838986049236
-0.0020187214233839657
-0.00431623588698879
0.0015473897667441703
-0.003942190838393347
0.002146319785284393
-0.003525632570701834
0.0017127367099501196
-0.003074717907876776
0.001334860909298158
-0.002601287102356331
0.0015191993673836029
-0.0021079861866421137
0.0021355418793451483
-0.0016011052195637782
0.0016296873823970998
-0.0010828831256846994
-0.0012758683096465197
-0.0005690315878039245
0.0018924604834743616
-6.701055924495061e-05
0.0018869261094117745
0.00041600083250599
0.002246234122273855
0.0008708359813390079
0.0005591119947563027
0.0012742215331941684
0.0019152509380371862
0.0016162423136849096
0.0017125865241684108
0.0019004675978617795
0.0016844211321721935
0.0021335727218110443
-0.001738649367993343
0.0023160901348702363
0.001545001782908929
0.002447642510538394
0.0015762779355410657
0.002534613321595203
0.001633894993370598
0.0025903209676916587
-0.005145239677558128
0.0026202196289084965
0.0015362404656354912
0.0026083106796175493
0.0015778055579095003
0.0025523012815614685
0.0013760266544081085
0.0024803641189178067
-0.0013194160472429733
0.0024149594710836915
0.0013783523665521643
0.002367589450986957
0.0017414652508749965
0.00232944736704753
0.0014117768897574656
0.0023013456425654854
-0.003750797672528158
0.0022918269517574583
0.0017029225463742407
0.002307315457896057
0.0018122844224854027
0.002304631325567407
0.0020333327622885813
0.0022440753028227576
-0.0012673734060752177
0.002158448608075666
0.0017931519241781236
0.0020843543328712705
0.001839435818124119
0.0020486893737478016
0.001663455450729568
0.002019183832275547
0.0012854948842975812
0.0019880887967164236
0.0016234145098293993
0.001976126418355086
0.0019181768711098099
0.0020063323509385863
0.0014669806556635643
0.002018566623800752
-0.0005990324074522465
0.0018777077190366756
0.0014747896694636544
0.0017230152950167194
0.0015491790831090337
0.001581914792587314
0.001495225422053679
0.0015320850765743782
0.0004920389711316419
0.001500674836126389
0.001488554725026809
0.0014822044903071623
0.0014508744849900835
0.0015670951478179043
0.0014236218742385257
0.001648474851555504
-0.00023786812092010243
0.0014948134643099147
0.001714286188416825
0.0012399884063197932
0.0015045161943036118
0.0011613725442916833
0.0018861036715360575
0.0011791187640527287
0.0011824607914566456
0.001161001256468435
0.0018811642478322118
0.0011347982227945413
0.0014796325549753858
0.0011221478920175033
0.0018063797174511392
0.0012887119507912128
-3.6132684053946895e-05
0.0013763896577154383
0.0017062330532539715
0.0013784757584738075
0.0014911814350622252
0.0012634563564975052
0.001749431265031659
0.0009818324096813509
-5.594441364388468e-05
0.0009523369044835303
0.0017373260504470875
0.0010263975052935007
0.0017305678588659173
0.0010224916168758255
0.0018859338245441643
0.0011710375005573156
0.0004139120770907527
0.0012590215102447641
0.002035183826832393
0.0012849110163487714
0.001573861715753889
0.0012633515281272089
0.0022602273308495483
0.0012871033494474473
0.0010523715392024894
0.0014976897703383488
0.002286187195035441
0.001073349117376843
0.0015555251896896085
0.001125017011798568
0.0022397122684533104
0.001247451444053279
-0.0013144816667061403
0.0012624774926119154
0.002189061003377863
0.0013220788682547283
0.001818575036292737
0.0013619822487644152
0.0022333816386021933
0.0011806321484529182
0.0005104852083862744
0.0012164397318372548
0.0022685019163063824
0.001359398692301099
0.0022819644411981098
0.001099208044011277
0.002286054604660744
0.0014496650189321446
0.0009474353419905963
0.0010977113229818398
0.0022956275460342145
0.001266279748165609
0.0016747667668836016
0.0011872878838420293
0.0023823430409679316
0.0012120144816353533
0.001097679606025724
0.0014572747137943517
0.0024549758240373846
0.001496390151480165
0.0015649956879743199
0.0015809441067681845
0.0025369590334624608
0.0015843247333368422
-0.0036198557217201376
0.0016704307378579788
0.002518841784758796
0.0019829772764212235
0.0013269167549230822
0.0018150049234987766
0.0025260746751114907
0.001883648287666068
0.001143030217915622
0.0019025202609077162
0.0025568986018770982
0.0018861556341064419
0.001684243391498649
0.002029751316286732
0.0025889431450639446
0.0020738827485894547
0.0009706639197888011
0.0021188276094914267
0.002622288930599452
0.0021748367902256326
0.0016186734974917526
0.0022987089460577243
0.0026656444660464328
0.002278429828332241
0.0012206747855300444
0.002464754476678888
0.0027313666919063007
0.002653798585514006
0.0013954884093262843
0.002927182037638907
0.0028007106280535238
0.0030514515619123276
-0.004669559476499505
0.00334402128855975
0.002855060921731605
0.0038676156409426683
0.0014817177386527445
0.003850091039840198
0.0028655120368333152
0.004197791232210667
0.00047019737267395734
0.0042383133822662
0.0028525415333837457
0.004728006574588187
0.001927935110844972
0.004719536801253916
0.002821793456759884
0.005087465878772513
0.0003719439870319838
0.0049633687634543806
0.0027444975939640718
0.005154037256137677
0.0025596292850197807
0.005034669528972402
0.0026145771916714342
0.005067700896681218
0.0011565081396307975
0.005028647653298171
0.002430435311685104
0.004789340393226076
0.0018335401628350899
0.004289696636887489
0.0021971186180371172
0.0036703825681250924
0.0004001667155107182
0.002975102781601711
0.0019076619518984313
0.002097246800661313
0.0021642487918899366
0.0015765306953164696
0.001560468365005436
0.0004946087906555092
-0.004338887079288048
-0.000602086175199198
0.0011521202095514458
-0.0017377167385451298
0.0012253341936131676
-0.002651316102921097
0.0006976997710156523
-0.0035188393350459187
0.0009992989320141256
-0.0042203271918322925
0.00021894355853304502
-0.004953730452284684
0.0015562198281351767
-0.005534652179834591
-0.00028372392350725395
-0.005978362786271782
0.0012500836310452492
-0.006354973119304911
-0.0008094569187366208
-0.006545303825634588
0.0013513629940532833
-0.007068405230158725
-0.0013415365547925727
-0.007058922455363049
0.0012206159725947309
-0.007457559909344918
-0.0018646858880259983
-0.007281551355076669
0.0010490548774123795
-0.006959480443516736
-0.0023691015708162486
-0.006569527589193707
0.00018014176119620346
-0.006170810921260272
-0.0028564225233059
-0.005648892232771377
0.0009319039412849932
-0.005412242470789641
-0.003321069335088293
-0.00507472134054063
0.0009248191375911477
-0.0046093403008785755
-0.003744831227904651
-0.004281525471690402
0.001461879063059946
-0.00414152183759852
-0.0041201336772152776
-0.003763769026546662
0.0010171771806183482
-0.0035075993149926285
-0.0044787462446374575
-0.002998879255954189
0.001251884055705119
-0.002685539839507219
-0.004880799416209953