# vtk DataFile Version 1.0
GRUMMP topologically 2D mesh
ASCII

DATASET UNSTRUCTURED_GRID
POINTS 6176 float
  1.0000000000000000   0.0000000000000000   0.0000000000000000
  0.9979736161243241   0.0002872981906159   0.0000000000000000
  0.9959038003591104   0.0005818082753016   0.0000000000000000
  0.9937894604158818   0.0008826109490225   0.0000000000000000
  0.9916311447855282   0.0011889740049165   0.0000000000000000
  0.9894256878168368   0.0015011074645448   0.0000000000000000
  0.9871732566523234   0.0018189104108560   0.0000000000000000
  0.9848739492731372   0.0021423104928037   0.0000000000000000
  0.9825241245750710   0.0024717658271048   0.0000000000000000
  0.9801244133260449   0.0028071825305054   0.0000000000000000
  0.9776732769852096   0.0031487906039340   0.0000000000000000
  0.9751690039483889   0.0034968357351786   0.0000000000000000
  0.9726117072730877   0.0038512643819321   0.0000000000000000
  0.9700001180350898   0.0042121148976419   0.0000000000000000
  0.9673332227148538   0.0045793859121594   0.0000000000000000
  0.9646079236541195   0.0049533708962095   0.0000000000000000
  0.9618249648196705   0.0053338679490647   0.0000000000000000
  0.9589807878895711   0.0057213439443832   0.0000000000000000
  0.9560767311296049   0.0061156062701256   0.0000000000000000
  0.9531120216710255   0.0065167463399167   0.0000000000000000
  0.9500819018783057   0.0069253778138591   0.0000000000000000
  0.9469876484068450   0.0073412143029309   0.0000000000000000
  0.9438286210030068   0.0077641908681895   0.0000000000000000
  0.9406001269296587   0.0081947829660712   0.0000000000000000
  0.9373041277084813   0.0086325757434285   0.0000000000000000
  0.9339368121646437   0.0090779560824189   0.0000000000000000
  0.9304976431076690   0.0095309377793780   0.0000000000000000
  0.9269838874379289   0.0099918267186165   0.0000000000000000
  0.9233965242394278   0.0104604374002928   0.0000000000000000
  0.9197323684717913   0.0109371203977286   0.0000000000000000
  0.9159901296799260   0.0114219111797446   0.0000000000000000
  0.9121662515702946   0.0119150917142392   0.0000000000000000
  0.9082612640703632   0.0124164093968364   0.0000000000000000
  0.9042711890176098   0.0129261849544228   0.0000000000000000
  0.9001985925103467   0.0134439182275261   0.0000000000000000
  0.8960367883853674   0.0139703538547480   0.0000000000000000
  0.8917881131106570   0.0145051006126241   0.0000000000000000
  0.8874465968544013   0.0150488093430172   0.0000000000000000
  0.8830132689405343   0.0156012428338051   0.0000000000000000
  0.8784843643309772   0.0161627200549514   0.0000000000000000
  0.8738585592690924   0.0167332093564690   0.0000000000000000
  0.8691331845657406   0.0173128340473851   0.0000000000000000
  0.8643080629784704   0.0179014022230632   0.0000000000000000
  0.8593790220315882   0.0184992057974382   0.0000000000000000
  0.8543443022105112   0.0191062525475961   0.0000000000000000
  0.8492020742372332   0.0197225542022908   0.0000000000000000
  0.8439504592998461   0.0203481184762133   0.0000000000000000
  0.8385847225217766   0.0209832807547837   0.0000000000000000
  0.8331043690503205   0.0216278714070098   0.0000000000000000
  0.8275075883744546   0.0222818740978654   0.0000000000000000
  0.8217896079901662   0.0229456038551552   0.0000000000000000
  0.8159499389768221   0.0236188617887649   0.0000000000000000
  0.8099850870934132   0.0243017702717010   0.0000000000000000
  0.8038929332928342   0.0249942623102002   0.0000000000000000
  0.7976697970229181   0.0256964297179088   0.0000000000000000
  0.7913134730328051   0.0264081777898121   0.0000000000000000
  0.7848218596203610   0.0271293903098903   0.0000000000000000
  0.7781898173908960   0.0278602762976724   0.0000000000000000
  0.7714169256365310   0.0286005013921829   0.0000000000000000
  0.7644979701754163   0.0293502351726533   0.0000000000000000
  0.7574308659438134   0.0301093068082177   0.0000000000000000
  0.7502135053150701   0.0308775557618342   0.0000000000000000
  0.7428404612557281   0.0316551512399728   0.0000000000000000
  0.7353096164115749   0.0324418730798164   0.0000000000000000
  0.7276172963491144   0.0332375368705936   0.0000000000000000
  0.7197598859172740   0.0340418579688506   0.0000000000000000
  0.7117355290536627   0.0348543282856948   0.0000000000000000
  0.7035389878799579   0.0356747811793425   0.0000000000000000
  0.6951650952820780   0.0365031090698871   0.0000000000000000
  0.6866122709923126   0.0373388258653197   0.0000000000000000
  0.6778754950330185   0.0381817369178559   0.0000000000000000
  0.6689534383202176   0.0390312029136988   0.0000000000000000
  0.6598376964403885   0.0398871771799410   0.0000000000000000
  0.6505290121117546   0.0407486821288951   0.0000000000000000
  0.6410191910005383   0.0416153892989160   0.0000000000000000
  0.6313056496470314   0.0424862165552765   0.0000000000000000
  0.6213823079172336   0.0433602824420315   0.0000000000000000
  0.6112489281649386   0.0442362457646169   0.0000000000000000
  0.6008963123926909   0.0451137308907019   0.0000000000000000
  0.5903211292528141   0.0459917803130241   0.0000000000000000
  0.5795184839365645   0.0468692540951747   0.0000000000000000
  0.5684857150099230   0.0477443424041717   0.0000000000000000
  0.5572148862675538   0.0486154402631608   0.0000000000000000
  0.5457024491672809   0.0494805599680832   0.0000000000000000
  0.5339780836677636   0.0503353194116202   0.0000000000000000
  0.5219860728183490   0.0511813660693644   0.0000000000000000
  0.5101253307512127   0.0519891081313360   0.0000000000000000
  0.4985043971600128   0.0527514649709832   0.0000000000000000
  0.4871181100865982   0.0534694955937708   0.0000000000000000
  0.4759663238182478   0.0541439373921026   0.0000000000000000
  0.4650424897306392   0.0547759224024376   0.0000000000000000
  0.4543414694194311   0.0553665338532900   0.0000000000000000
  0.4438615277983380   0.0559167464857066   0.0000000000000000
  0.4335966445555638   0.0564277439227250   0.0000000000000000
  0.4235422171719039   0.0569005367499369   0.0000000000000000
  0.4136931783754329   0.0573360485787389   0.0000000000000000
  0.4040479201781875   0.0577350333573017   0.0000000000000000
  0.3946007843384192   0.0580984587592611   0.0000000000000000
  0.3853459130056055   0.0584273588583778   0.0000000000000000
  0.3762828394437238   0.0587225582688298   0.0000000000000000
  0.3674052759622001   0.0589850521268143   0.0000000000000000
  0.3587104110044708   0.0592156767487264   0.0000000000000000
  0.3501952433465900   0.0594152538281565   0.0000000000000000
  0.3418548081050912   0.0595846279097528   0.0000000000000000
  0.3336858663230149   0.0597246577421592   0.0000000000000000
  0.3256868701986138   0.0598362486465025   0.0000000000000000
  0.3178507769372301   0.0599203474438374   0.0000000000000000
  0.3101776523444911   0.0599777679649948   0.0000000000000000
  0.3026620994593082   0.0600092896252224   0.0000000000000000
  0.2953022098091474   0.0600156089816429   0.0000000000000000
  0.2880942515540157   0.0599974067416477   0.0000000000000000
  0.2810344582773878   0.0599553507162620   0.0000000000000000
  0.2741224198462300   0.0598902308958287   0.0000000000000000
  0.2673508102792782   0.0598027829062179   0.0000000000000000
  0.2607208372897423   0.0596938009430880   0.0000000000000000
  0.2542268737219818   0.0595639532054747   0.0000000000000000
  0.2478699323930078   0.0594139942796022   0.0000000000000000
  0.2416426526986943   0.0592444560641495   0.0000000000000000
  0.2355443386744786   0.0590559928562533   0.0000000000000000
  0.2295742285057687   0.0588492600763349   0.0000000000000000
  0.2237267309732288   0.0586247739586633   0.0000000000000000
  0.2180011540540604   0.0583832555000465   0.0000000000000000
  0.2123936096745636   0.0581252700988444   0.0000000000000000
  0.2069018249031851   0.0578514118247249   0.0000000000000000
  0.2015265925874962   0.0575624139311738   0.0000000000000000
  0.1962639217171782   0.0572587327640815   0.0000000000000000
  0.1911098627978642   0.0569407701058159   0.0000000000000000
  0.1860635373512509   0.0566090833477142   0.0000000000000000
  0.1811225555455632   0.0562641183158228   0.0000000000000000
  0.1762831066659017   0.0559062017034564   0.0000000000000000
  0.1715472965099615   0.0555361405439852   0.0000000000000000
  0.1669099315072494   0.0551541804881659   0.0000000000000000
  0.1623702175183220   0.0547608759938091   0.0000000000000000
  0.1579259317985442   0.0543566416724963   0.0000000000000000
  0.1535748664842349   0.0539418626674859   0.0000000000000000
  0.1493147619729656   0.0535168899310313   0.0000000000000000
  0.1451447283274916   0.0530821904592715   0.0000000000000000
  0.1410625235604109   0.0526380756497570   0.0000000000000000
  0.1370659530359299   0.0521848322503466   0.0000000000000000
  0.1331567814638518   0.0517231967360234   0.0000000000000000
  0.1293276562313525   0.0512528455259629   0.0000000000000000
  0.1255804504092525   0.0507745502773552   0.0000000000000000
  0.1219131281255899   0.0502885988465475   0.0000000000000000
  0.1183237015509818   0.0497952534010120   0.0000000000000000
  0.1148102318092792   0.0492947513229479   0.0000000000000000
  0.1113720175725520   0.0487874812015910   0.0000000000000000
  0.1080070759532941   0.0482736140267307   0.0000000000000000
  0.1047146335147149   0.0477534816268928   0.0000000000000000
  0.1014927513745349   0.0472272179600503   0.0000000000000000
  0.0983395479756496   0.0466949369878610   0.0000000000000000
  0.0952554508934213   0.0461571322873805   0.0000000000000000
  0.0922363866432952   0.0456135046927440   0.0000000000000000
  0.0892828700951544   0.0450645654218522   0.0000000000000000
  0.0863942718297865   0.0445106297655928   0.0000000000000000
  0.0835678320075330   0.0439515803137779   0.0000000000000000
  0.0808019575920066   0.0433874837688950   0.0000000000000000
  0.0780971710598979   0.0428188278852694   0.0000000000000000
[...]
POINT_DATA 6176
SCALARS continuity float
LOOKUP_TABLE default
-0.0006554564244673077
-0.0002239664269152876
-0.0001749622665942032
-0.00017045630778845188
-0.00013199385047581866
-0.00011286854630275124
-0.00010331595791619939
-9.422334740387084e-05
-8.743092534856692e-05
-8.225705955310643e-05
-7.648200880883763e-05
-6.905898566432761e-05
-6.32078878082696e-05
-5.5104329607023376e-05
-4.538651565178139e-05
-3.391889464701862e-05
-2.0392364231034863e-05
-7.81346926643068e-06
5.452886886304594e-06
1.9567984084236894e-05
3.300272825959921e-05
4.863422749550928e-05
6.654225604623534e-05
8.454109955646044e-05
0.00010365532600266372
0.00012390899305714554
0.0001446588350952952
0.00016330540768869951
0.00018154592550818333
0.00020032709241206927
0.00022087495089672228
0.00024274393133017467
0.0002645038958027909
0.0002846360365412582
0.00030291820211917296
0.0003210786701230723
0.00033863685162463953
0.0003547322556222441
0.00036875383125516733
0.0003830128839680837
0.0003988727043331239
0.0004155177413415196
0.00043162275799812347
0.0004465221852761536
0.0004607293935564455
0.00047459084752707434
0.0004892120541051648
0.0005060951740659152
0.0005252664234472637
0.0005449415426028867
0.0005629757092243453
0.0005781105181193485
0.000590838798933324
0.0006027743150557349
0.0006162383458314411
0.0006333367154293708
0.0006535870693238939
0.000674236888054512
0.0006927947028816843
0.0007077097646470009
0.0007186162609137064
0.0007270808110533575
0.0007364770140568024
0.0007491680920591521
0.0007638563870155299
0.0007779337880644455
0.0007902473134708739
0.0008011606877702408
0.0008103056734437372
0.0008158004519590703
0.0008157998835598172
0.0008117518610854463
0.0008078075687654456
0.0008068358780440234
0.0008066436794526009
0.000801941046275175
0.0007896113334194702
0.0007687281709573443
0.0007396311173872055
0.0007044422814934155
0.0006660704561828714
0.0006247665689302551
0.0005781348030443061
0.0005245535258293853
0.0004664987090586123
0.00040140265033748995
0.00031133328654863086
0.00021465553239040437
0.00011212877967689936
2.646669555381906e-06
-0.00011410311374663096
-0.00023679139133200419
-0.0003649227141653784
-0.000499560589025607
-0.0006414812340370131
-0.0007902584577277434
-0.0009447974769385304
-0.0011046961299301854
-0.001270081044206167
-0.0014398562857679156
-0.001612021630231526
-0.0017856204250291817
-0.0019613350498404367
-0.0021399915045877144
-0.002320640120753395
-0.0025017253058776897
-0.002682620742786032
-0.002863802850200368
-0.0030446793871489663
-0.0032230699617129197
-0.0033976604873117012
-0.0035695250651595002
-0.0037402054079567954
-0.003909626173716995
-0.00407671037019298
-0.0042409681872240925
-0.004404214176937842
-0.004566905063691255
-0.0047265941418553805
-0.004881918817886098
-0.005035000803557141
-0.00518857420910456
-0.005342403843017448
-0.00549479833310768
-0.0056457405579005936
-0.005797100745066377
-0.005950814703348288
-0.006101901275365395
-0.006246725284723524
-0.006388600935757396
-0.006531101080809027
-0.006676711767971907
-0.006821537587663021
-0.0069651258018249606
-0.007112124573908153
-0.0072593151469366995
-0.007394438474051133
-0.00752989197753826
-0.007672178007804897
-0.007814564400597867
-0.007955790044437755
-0.008094787609832696
-0.008231724325177821
-0.008373143507389902
-0.00852743932420358
-0.008671185075006763
-0.00880093141926153
-0.008932770671874523
-0.009072148988618852
-0.009212109654805768
-0.009349092191678362
-0.009485371421242273
-0.009618673891838967
-0.009750631790323996
-0.009868508473789837
-0.010012676677569502
-0.010166991988555432
-0.010312111061766471
-0.010454055364588762
-0.010594221811592782
-0.010726378217009185
-0.010855858740407173
-0.010968889280769924
-0.011086274137745336
-0.011210873237849455
-0.011342880489303458
-0.011470406750201454
-0.011602385157916886
-0.011729672754453477
-0.011865452719425105
-0.011994164853260589
-0.012135629527027484
-0.01223722972816767
-0.012353550812477744
-0.012449293306421215
-0.01256438326512752
-0.0126549129028086
-0.01271788280486507
-0.012842157023994813
-0.012896487025201244
-0.013019790971528597
-0.01305209249027276
-0.013182760636707286
-0.013179429265870436
-0.01329212883610978
-0.013247917475946428
-0.013339438601851347
-0.013251050578647413
-0.013317981359228745
-0.013157051459274075
-0.01324356312611077
-0.013135776384031357
-0.013052958035285755
-0.012947547768298156
-0.012812491155882483
-0.01264156982158924
-0.012426408139427813
-0.012178931177067738
-0.011869178345506342
-0.01150049658032336
-0.01104454051616369
-0.010548844004719992
-0.010001241133130397
-0.009370040037234252
-0.008457030792634915
-0.007783780179961256
-0.00676751437000778
-0.005674421082572744
-0.0044921859555866325
-0.003265796197202063
-0.0019141530545555838
-0.0004777896051588366
0.0008006339404050836
0.002088038769024575
0.003350198482198138
0.004606357720503818
0.005826402847253405
0.0066286257710948294
0.007658255634486383
0.008592342002467437
0.009378172568928051
0.010038196497522179
0.010617266477786064
0.011126549403623013
0.011528526526680799
0.01185707983774164
0.012121155448745879
0.012347753975670719
0.01250553017382855
0.012697292816614776
0.012777474730784975
0.012914781495519228
0.012997867305714941
0.013015554720165069
0.013088588748247518
0.013069679463781018
0.013098517118355383
0.01305573403608622
0.01304590986198945
0.012986510761609348
0.012948276494748683
0.012876085203458001
0.012806384797476218
0.01271174864083408
0.01262457026391692
0.01252631595464729
0.012418213011020711
0.012320439891923952
0.012203653252121685
0.012096536526773179
0.01195404171843386
0.011859742879129057
0.011691422073139723
0.011561674583879352
0.011426609856955051
0.011299019854948633
0.011165200332247095
0.011035148874546468
0.010907200937771328
0.010787920595997421
0.01068402086562192
0.010540788052720405
0.010417825265704119
0.010283933477012917
0.01013918223519479
0.010006135704241753
0.009867946602701183
0.009718797073586648
0.00956881986932962
0.00943108939458365
0.009329913901488615
0.00916893367127542
0.009038716303479079
0.00890749347016878
0.008769962762862932
0.00865050641820136
0.008535615952244708
0.008394610836684609
0.008241478548553234
0.008088207389372224
0.007947386809446046
0.007811843136529961
0.007674326228147512
0.007534677124962459
0.007393514450514651
0.007258566511726282
0.007134242503647315
0.007003362354639857
0.006862378498068554
0.006707696413709167
0.006555602610903678
0.006410898542510554
0.0062666307533210015
0.006122856968834874
0.005984860763909431
0.005847734067895176
0.005704795728386483
0.005551988894185378
0.005395049354428109
0.005241137939561849
0.005088622318475581
0.004935093153528623
0.004782744879335295
0.0046311502661204006
0.0044767397578357295
0.00431620176412727
0.004150638839217446
0.003983538459336415
0.003815043042314622
0.0036428846931298607
0.003466198105081077
0.0032856908298928545
0.003102547354372338
0.0029165688003188785
0.002725545535533324
0.0025282034997305422
0.002325484455612057
0.0021200610981319847
0.0019133848418880846
0.0017059558188219116
0.0014993138607374468
0.001294758931106009
0.001092341219793869
0.0008917111385297897
0.0006933537206947458
0.0004986465279692823
0.0003090265560249542
0.00012534798820653382
-5.163768465039371e-05
-0.00022072900857358959
-0.00038074903958613623
-0.0005316325662403694
-0.0006746450732573741
-0.0008106491366524254
-0.0009392222550039286
-0.001059279835405528
-0.0011714014953468775
-0.0012766102608977046
-0.0013770596509316837
-0.001446566183880682
-0.001501938985694618
-0.001551163844414635
-0.0015930750745436057
-0.001630122338575408
-0.001665170026817278
-0.0016973551498768301
-0.0017233512814518973
-0.0017407377535668728
-0.0017493272048032303
-0.0017500964871673844
-0.0017473211507885885
-0.0017473688723407346
-0.0017506750521375635
-0.0017511994767781328
-0.001745544297948712
-0.00173537299141983
-0.0017225340401872506
-0.0017072714480118496
-0.0016890290532813065
-0.0016702446648450809
-0.0016552643181343577
-0.001645129943788873
-0.0016364374877056575
-0.0016255716518866008
-0.0016107369551733451
-0.001592316187381074
-0.0015719365675654542
-0.0015529372497998196
-0.0015385306681028575
-0.00152852213019827
-0.0015192545372069402
-0.0015085294799613467
-0.00149665261774615
-0.0014841226586656865
-0.001470451776655763
-0.00145622155204189
-0.0014433530657691261
-0.0014338245557094392
-0.0014266689566714596
-0.0014196517768192585
-0.0014116183597885704
-0.0014020930553571593
-0.0013906962780122745
-0.0013777424159516815
-0.0013644295310400434
-0.0013524904773377676
-0.0013430972650881688
-0.0013347232465167598
-0.0013244306312033807
-0.0013133461710697725
-0.0013027175545993188
-0.0012932916151835812
-0.0012828866807962816
-0.0012715937664737262
-0.001260671714478224
-0.001248204295464339
-0.0012338041791478075
-0.0012138128133962688
-0.001199129060388826
-0.0011827541069475535
-0.001163014219137553
-0.001141741399235447
-0.0011206081419297947
-0.0011005578150830155
-0.001080261792328373
-0.0010587064993495781
-0.001037642125604551
-0.0010188662816008028
-0.0009971406015549858
-0.0009755336211296063
-0.0009574827887564908
-0.0009429944286833852
-0.0009300392392451959
-0.0009215313337357292
-0.0009140191792575661
-0.0009096674584647003
-0.0009076607240294095
-0.0009061524549558369
-0.0009019540248105222
-0.0008945347718890979
-0.0008753059451689599
-0.0008871969544470328
-0.0008694786500317282
-0.00033242307730014397
-0.0007522809467952317
-0.0007461307571919856
-0.0007143486908008958
-0.000594958769572052
-0.0004822927428422007
-0.0004165258293094791
-0.00022021300853824265
-0.002802077272133936
-0.00014663816347266454
-0.007611322688167996
-0.00012474943576686571
-0.0022622952944050495
-0.00010852073001403404
-0.008300533908910356
-9.694630899542506e-05
-0.0029820570994046097
-8.916884622582517e-05
-0.009156387089689765
-8.463032263701767e-05
-0.011210231252586383
-7.491783337272681e-05
-0.009901652274055312
-6.820542531376789e-05
-0.003161508898867583
-6.448379977940146e-05
-0.010634410813081913
-5.5550914251284753e-05
-0.0019967038037191536
-4.874068654014873e-05
-0.01094169100660906
-4.1100587423728356e-05
-0.003337136025184489
-2.9780129004982863e-05
-0.011502928494525087
-1.8096786486175242e-05
-0.011552710990871483
-8.019541792583046e-06
-0.011691973634569194
6.071183625565588e-06
-0.0035047733051309727
1.6965162119858886e-05
-0.012103326180877824
3.468508476054773e-05
-0.003955966345426392
4.96729659253304e-05
-0.01221518238345572
6.539343964002834e-05
-0.003671523981855107
8.280541569560952e-05
-0.012502275695865234
0.00010432364355227219
-0.011703049596565184
0.00012544526557589598
-0.012567293582133201
0.0001463881088053943
-0.0038365279899321906
0.0001638261326391507
-0.012764805645689874
0.00018253949742251063
-0.002155737107765341
0.00020088474229059555
-0.012791865942453587
0.00022015188609376187
-0.004002371899126403
0.00024098476714683902
-0.012946164198634938
0.0002626782145764799
-0.011897228421071344
0.000284131958700687
-0.01294474718994194
0.0003036943579346293
-0.004164373757962929
0.00032232341274749044
-0.013033402321515812
0.000340674120627292
-0.0028868375415551004
0.0003583810504363066
-0.013052763043114991
0.00037367821033321147
-0.004321903013367986
0.00038746234689319606
-0.013075224843741674
0.00040213925762726753
-0.011989199520399011
0.000418070652191066
-0.013070308498587622
0.00043441358820548245
-0.0044776763034418765
0.0004502079146792455
-0.01305204672429741
0.0004651014040480802
-0.0023212963820846587
0.0004790249102837898
-0.013026135513688187
0.0004923749717489281
-0.004638524316265499
0.0005068033743797876
-0.012974531249433697
0.0005239586513836379
-0.011891105917761878
0.0005431642057305005
-0.012922533732904314
0.0005624367243541846
-0.004790656503601672
0.0005799320879310233
-0.012785786166424508
0.0005945957796146782
-0.003813791229450989
0.0006070302121189831
-0.012792376150488399
0.0006186774313980787
-0.004941890799288447
0.0006323363704477575
-0.012622565428574624
0.0006498434643935257
-0.011900332913114728
0.0006700274330825282
-0.012620827247903192
0.0006902452353425042
-0.005082977761168551
0.0007083544164043336
-0.0124928583952939
0.0007227056081145583
-0.0024697356532227288
0.0007330078160602155
-0.012419716067363872
0.0007413525380712644
-0.005228172110240332
0.0007511760869496232
-0.012302487015379135
0.0007641243110902849
-0.011823779013944853
0.0007784574985287347
-0.012214869581664836
0.0007919230534892903
-0.005370734194562086
0.0008038504605286976
-0.012092530905419062
0.0008145949285948668
-0.0009449374225786205
0.0008233601057828858
-0.01201587625743817
0.0008278624758338715
-0.005517097890726842
0.000826792584454926
-0.011882827554025201
0.0008224651308020006
-0.011704557717999865
0.0008189794245921426
-0.01179461094427669
0.0008182587176842667
-0.00565981981433329
0.0008172863858122824
-0.011629354366819836
0.0008112075187650066
-0.0026237088496872266
0.000797504061792996
-0.01156422595097028
0.0007753711831984607
-0.005802349897417382
0.0007451678593477886
-0.011393641706736733
0.000709507861310407
-0.01155832356115896
0.000670815497426236
-0.01132002035220222
0.0006287194634239011
-0.005952866889941573
0.0005807467657058458
-0.011151374907994486
0.0005260866487460807
-0.0037056339933578576
0.0004679857344156237
-0.011008172429742247
0.0004124395426654903
-0.006090633030638119
0.000334211192098353
-0.010903584895381308
0.00023682626756169208
-0.011439147175153519
0.00013510062966528004
-0.010753786569631975
2.6788429147642188e-05
-0.006220005392621991
-8.912595746956431e-05
-0.010629700628245194
-0.00021131759384037928
-0.0027744091786843367
-0.00033889465318494885
-0.01050185093590439
-0.0004727793769853471
-0.006362871897052661
-0.0006137963346024585
-0.010377695632470776
-0.0007618532473718164
-0.011315604529532532
-0.0009159430660849868
-0.010237118158907552
-0.0010754594322781926
-0.006497246968690525
-0.0012402250971435289
-0.010135511878662401
-0.0014094142145798557
-0.0029940340262208424
-0.0015811509192382729
-0.009994429044884104
-0.0017543888386948514
-0.00664066885291313
-0.0019295818491739804
-0.009837295202315854
-0.0021076953426554814
-0.01110326745103572
-0.002288089815774844
-0.00968535548573514
-0.0024691393276941222
-0.006775959251058342
-0.0026500643615494954
-0.009549275130676644
-0.002831107882962004
0.008935758980918453
-0.003011796543311054
-0.009418635874667732
-0.003189751999530886
-0.006915923867173696
-0.0033640105357966472
-0.00927835846711894
-0.0035356719281793825
-0.010986958291881099
-0.0037060488477019607
-0.009145157746396126
-0.0038753421465660327
-0.007064114181404666
-0.004042282311470962
-0.009010288529559186
-0.004206565256847751
0.00039648982389462904
-0.004369595646040881
-0.008874188042412929
-0.0045321691945007965
-0.007209261153717641
-0.004691380161977451
-0.008748096840777176
-0.0048455593477454454
-0.010814808794361606
-0.004997954392915107
-0.0086147937542851
-0.0051509193244506845
-0.007329837734544272
-0.0053046871463565525
-0.00848254584770723
-0.005456774029004414
-0.002932077690829532
-0.0056074178940594445
-0.008333213085958408
-0.005758520966067706
-0.007466961282274719
-0.005912249878765836
-0.008182231634622478
-0.006063504856971731
-0.010691322823101547
-0.006207275883858547
-0.008043777782079594
-0.006348216525760746
-0.007599949325726735
-0.006489503355280863
-0.007906885387572647
-0.006634464313788464
-0.0035601464219222807
-0.006779697090814856
-0.007768125070608204
-0.006923097928447629
-0.007731065077800367
-0.00707283472729273
-0.007624662881210241
-0.007217869041035349
-0.010501667010430682
-0.007353162316561142
-0.007481907395737912
-0.007489878557930189
-0.00786798913776241
-0.0076290579638857575
-0.007340884894373732
-0.007771919544262205
-0.0030822108865528153
-0.007913295965086227
-0.007217578333024383
-0.00805242321728281
-0.008000065093592178
-0.008190277676516417
-0.007083474792781465
-0.008338453741549234
-0.010381607267164562
-0.008476958151775463
-0.006932845732887078
-0.008610685084201432
-0.008133195115168067
-0.00875295068359619
-0.006791285169258424
-0.00889475609248209
-0.002164045238850503
-0.009030684265957857
-0.006646816819837616
-0.009171834354622398
-0.008281633531721427
-0.009308527009661893
-0.006509259157424996
-0.009451639020159342
-0.010269386201674235
-0.009584281950170876
-0.006369163406642844
-0.009735477855665255
-0.008425353777410844
-0.009875759297966762
-0.006232247710690333
-0.010020484538285874
-0.003230622319571973
-0.010147015162528876
-0.006086879378905442
-0.010267616717939814
-0.008551874008738273
-0.010419747413194572
-0.005939180398270661
-0.010560448743582904
-0.007902164722871413
-0.010692442520687212
-0.0057842778086580286
-0.010828246583935273
-0.008708677029204198
-0.01097499876394753
-0.0056359159735764885
-0.0110917032728824
-0.003465237591449577
-0.01122914708402043
-0.005487813821228637
-0.011367735375616582
-0.008836727145702024
-0.011486304962700712
-0.005337000897599107
-0.011625580276009285
-0.01007818834797504
-0.011743255641696567
-0.005184085339992245
-0.011881596938277977
-0.008950623652372385
-0.011978898893570749
-0.005033484473394688
-0.012121376415332997
-0.0033881821798804074
-0.012213978463489428
-0.004883069663233979
-0.012346441988192727
-0.009089434503905466
-0.0124273788214639
-0.004732027032452856
-0.01255962799303838
-0.0009165621729641244
-0.012630511002522332
-0.004574063407867996
-0.012761016316019074
-0.009208112659008557
-0.012819288924713883
-0.004412264309130278
-0.012940641057575945
-0.003109270516038989
-0.012996722088603226
-0.0042501163994811495
-0.013121419001859506
-0.009344566232364212
-0.013150798890389745
-0.00408668030319195
-0.01326073557933176
-0.009874230508130143
-0.0132564780077158
-0.003920432859068994
-0.013339839766857799
-0.009486315399012995
-0.013300334365256601
-0.003751320591416179
-0.013354864453610898
-0.003525053438325992
-0.013279700740613007
-0.003581395805902735
-0.013293310209587704
-0.009597839087573069
-0.01322244301832182
-0.0034107985752534166
-0.013170253581273323
0.007980612856731318
-0.013087408651919702
-0.003237979046509446
-0.012984010538770565
-0.009756028055330254
-0.01284775477976195
-0.0030604902377064226
-0.012678085079518408
-0.003327999877942523
-0.012475874467816265
-0.0028795759947712303
-0.012217299738741211
-0.009920743631123843
-0.011918027170575845
-0.0026980745633218605
-0.011536194193089643
-0.009643440363560428
-0.011085161375455508
-0.0025160647754155197
-0.010550440389023861
-0.010080684807382062
-0.0099374459579157
-0.002333676208139507
-0.009222000196788645
-0.0036559833859785467
-0.008411288555291122
-0.0021519667685539834
-0.007371065156138454
-0.010142964525507194
-0.006333304844380819
-0.0019730217779819147
-0.005253712503651656
-0.009503036927446154
-0.00412198918981592
-0.0017970733890297365
-0.002921872351214621
-0.010295057623108679
-0.0017797937171754358
-0.0016231231395979961
-0.0006219869906783806
0.00044086279700394064
0.0006267129138913133
-0.001450162109414879
0.0018697823766365947
-0.010394244017130497
0.0030733976912306975
-0.0012792562480669664
0.004285292850818705
-0.009358459252702716
0.005468083461932211
-0.001112401938273002
0.006680991730754548
-0.010493736569760286
0.007727432536954351
-0.0009505054471477203
0.008559444251451736
-0.00380125330921835
0.009416500922578999
-0.0007940248609011723
0.010123394296786171
-0.010606820353403606
0.010706875784225628
-0.0006437033761212463
0.011218702304062831
-0.009215767594567364
0.011599928437659057
-0.000500714836808327
0.01192894983171752
-0.010753778808362941
0.01219743918378406
-0.000365147117683045
0.012403864336779412
-0.0031940532031278436
0.012570308357104864
-0.00023559111593013355
0.012751714136053457
-0.010905851735307044
0.012831486687858851
-0.00011122620574964414
0.012954457163845159
-0.009101813876499894
0.01299170933251248
6.984078409844444e-06
0.013083219069002049
0.00020094731342545514
0.013075934038601847
0.0001175810583723842
0.013123719393411632
-0.0039284016571629774
0.01309051664586291
0.00022088140792416548
0.01309872796060853
-0.011078128645218639