# vtk DataFile Version 1.0
GRUMMP topologically 2D mesh
ASCII

DATASET UNSTRUCTURED_GRID
POINTS 6176 float
  1.0000000000000000   0.0000000000000000   0.0000000000000000
  0.9979736161243241   0.0002872981906159   0.0000000000000000
  0.9959038003591104   0.0005818082753016   0.0000000000000000
  0.9937894604158818   0.0008826109490225   0.0000000000000000
  0.9916311447855282   0.0011889740049165   0.0000000000000000
  0.9894256878168368   0.0015011074645448   0.0000000000000000
  0.9871732566523234   0.0018189104108560   0.0000000000000000
  0.9848739492731372   0.0021423104928037   0.0000000000000000
  0.9825241245750710   0.0024717658271048   0.0000000000000000
  0.9801244133260449   0.0028071825305054   0.0000000000000000
  0.9776732769852096   0.0031487906039340   0.0000000000000000
  0.9751690039483889   0.0034968357351786   0.0000000000000000
  0.9726117072730877   0.0038512643819321   0.0000000000000000
  0.9700001180350898   0.0042121148976419   0.0000000000000000
  0.9673332227148538   0.0045793859121594   0.0000000000000000
  0.9646079236541195   0.0049533708962095   0.0000000000000000
  0.9618249648196705   0.0053338679490647   0.0000000000000000
  0.9589807878895711   0.0057213439443832   0.0000000000000000
  0.9560767311296049   0.0061156062701256   0.0000000000000000
  0.9531120216710255   0.0065167463399167   0.0000000000000000
  0.9500819018783057   0.0069253778138591   0.0000000000000000
  0.9469876484068450   0.0073412143029309   0.0000000000000000
  0.9438286210030068   0.0077641908681895   0.0000000000000000
  0.9406001269296587   0.0081947829660712   0.0000000000000000
  0.9373041277084813   0.0086325757434285   0.0000000000000000
  0.9339368121646437   0.0090779560824189   0.0000000000000000
  0.9304976431076690   0.0095309377793780   0.0000000000000000
  0.9269838874379289   0.0099918267186165   0.0000000000000000
  0.9233965242394278   0.0104604374002928   0.0000000000000000
  0.9197323684717913   0.0109371203977286   0.0000000000000000
  0.9159901296799260   0.0114219111797446   0.0000000000000000
  0.9121662515702946   0.0119150917142392   0.0000000000000000
  0.9082612640703632   0.0124164093968364   0.0000000000000000
  0.9042711890176098   0.0129261849544228   0.0000000000000000
  0.9001985925103467   0.0134439182275261   0.0000000000000000
  0.8960367883853674   0.0139703538547480   0.0000000000000000
  0.8917881131106570   0.0145051006126241   0.0000000000000000
  0.8874465968544013   0.0150488093430172   0.0000000000000000
  0.8830132689405343   0.0156012428338051   0.0000000000000000
  0.8784843643309772   0.0161627200549514   0.0000000000000000
  0.8738585592690924   0.0167332093564690   0.0000000000000000
  0.8691331845657406   0.0173128340473851   0.0000000000000000
  0.8643080629784704   0.0179014022230632   0.0000000000000000
  0.8593790220315882   0.0184992057974382   0.0000000000000000
  0.8543443022105112   0.0191062525475961   0.0000000000000000
  0.8492020742372332   0.0197225542022908   0.0000000000000000
  0.8439504592998461   0.0203481184762133   0.0000000000000000
  0.8385847225217766   0.0209832807547837   0.0000000000000000
  0.8331043690503205   0.0216278714070098   0.0000000000000000
  0.8275075883744546   0.0222818740978654   0.0000000000000000
  0.8217896079901662   0.0229456038551552   0.0000000000000000
  0.8159499389768221   0.0236188617887649   0.0000000000000000
  0.8099850870934132   0.0243017702717010   0.0000000000000000
  0.8038929332928342   0.0249942623102002   0.0000000000000000
  0.7976697970229181   0.0256964297179088   0.0000000000000000
  0.7913134730328051   0.0264081777898121   0.0000000000000000
  0.7848218596203610   0.0271293903098903   0.0000000000000000
  0.7781898173908960   0.0278602762976724   0.0000000000000000
  0.7714169256365310   0.0286005013921829   0.0000000000000000
  0.7644979701754163   0.0293502351726533   0.0000000000000000
  0.7574308659438134   0.0301093068082177   0.0000000000000000
  0.7502135053150701   0.0308775557618342   0.0000000000000000
  0.7428404612557281   0.0316551512399728   0.0000000000000000
  0.7353096164115749   0.0324418730798164   0.0000000000000000
  0.7276172963491144   0.0332375368705936   0.0000000000000000
  0.7197598859172740   0.0340418579688506   0.0000000000000000
  0.7117355290536627   0.0348543282856948   0.0000000000000000
  0.7035389878799579   0.0356747811793425   0.0000000000000000
  0.6951650952820780   0.0365031090698871   0.0000000000000000
  0.6866122709923126   0.0373388258653197   0.0000000000000000
  0.6778754950330185   0.0381817369178559   0.0000000000000000
  0.6689534383202176   0.0390312029136988   0.0000000000000000
  0.6598376964403885   0.0398871771799410   0.0000000000000000
  0.6505290121117546   0.0407486821288951   0.0000000000000000
  0.6410191910005383   0.0416153892989160   0.0000000000000000
  0.6313056496470314   0.0424862165552765   0.0000000000000000
  0.6213823079172336   0.0433602824420315   0.0000000000000000
  0.6112489281649386   0.0442362457646169   0.0000000000000000
  0.6008963123926909   0.0451137308907019   0.0000000000000000
  0.5903211292528141   0.0459917803130241   0.0000000000000000
  0.5795184839365645   0.0468692540951747   0.0000000000000000
  0.5684857150099230   0.0477443424041717   0.0000000000000000
  0.5572148862675538   0.0486154402631608   0.0000000000000000
  0.5457024491672809   0.0494805599680832   0.0000000000000000
  0.5339780836677636   0.0503353194116202   0.0000000000000000
  0.5219860728183490   0.0511813660693644   0.0000000000000000
  0.5101253307512127   0.0519891081313360   0.0000000000000000
  0.4985043971600128   0.0527514649709832   0.0000000000000000
  0.4871181100865982   0.0534694955937708   0.0000000000000000
  0.4759663238182478   0.0541439373921026   0.0000000000000000
  0.4650424897306392   0.0547759224024376   0.0000000000000000
  0.4543414694194311   0.0553665338532900   0.0000000000000000
  0.4438615277983380   0.0559167464857066   0.0000000000000000
  0.4335966445555638   0.0564277439227250   0.0000000000000000
  0.4235422171719039   0.0569005367499369   0.0000000000000000
  0.4136931783754329   0.0573360485787389   0.0000000000000000
  0.4040479201781875   0.0577350333573017   0.0000000000000000
  0.3946007843384192   0.0580984587592611   0.0000000000000000
  0.3853459130056055   0.0584273588583778   0.0000000000000000
  0.3762828394437238   0.0587225582688298   0.0000000000000000
  0.3674052759622001   0.0589850521268143   0.0000000000000000
  0.3587104110044708   0.0592156767487264   0.0000000000000000
  0.3501952433465900   0.0594152538281565   0.0000000000000000
  0.3418548081050912   0.0595846279097528   0.0000000000000000
  0.3336858663230149   0.0597246577421592   0.0000000000000000
  0.3256868701986138   0.0598362486465025   0.0000000000000000
  0.3178507769372301   0.0599203474438374   0.0000000000000000
  0.3101776523444911   0.0599777679649948   0.0000000000000000
  0.3026620994593082   0.0600092896252224   0.0000000000000000
  0.2953022098091474   0.0600156089816429   0.0000000000000000
  0.2880942515540157   0.0599974067416477   0.0000000000000000
  0.2810344582773878   0.0599553507162620   0.0000000000000000
  0.2741224198462300   0.0598902308958287   0.0000000000000000
  0.2673508102792782   0.0598027829062179   0.0000000000000000
  0.2607208372897423   0.0596938009430880   0.0000000000000000
  0.2542268737219818   0.0595639532054747   0.0000000000000000
  0.2478699323930078   0.0594139942796022   0.0000000000000000
  0.2416426526986943   0.0592444560641495   0.0000000000000000
  0.2355443386744786   0.0590559928562533   0.0000000000000000
  0.2295742285057687   0.0588492600763349   0.0000000000000000
  0.2237267309732288   0.0586247739586633   0.0000000000000000
  0.2180011540540604   0.0583832555000465   0.0000000000000000
  0.2123936096745636   0.0581252700988444   0.0000000000000000
  0.2069018249031851   0.0578514118247249   0.0000000000000000
  0.2015265925874962   0.0575624139311738   0.0000000000000000
  0.1962639217171782   0.0572587327640815   0.0000000000000000
  0.1911098627978642   0.0569407701058159   0.0000000000000000
  0.1860635373512509   0.0566090833477142   0.0000000000000000
  0.1811225555455632   0.0562641183158228   0.0000000000000000
  0.1762831066659017   0.0559062017034564   0.0000000000000000
  0.1715472965099615   0.0555361405439852   0.0000000000000000
  0.1669099315072494   0.0551541804881659   0.0000000000000000
  0.1623702175183220   0.0547608759938091   0.0000000000000000
  0.1579259317985442   0.0543566416724963   0.0000000000000000
  0.1535748664842349   0.0539418626674859   0.0000000000000000
  0.1493147619729656   0.0535168899310313   0.0000000000000000
  0.1451447283274916   0.0530821904592715   0.0000000000000000
  0.1410625235604109   0.0526380756497570   0.0000000000000000
  0.1370659530359299   0.0521848322503466   0.0000000000000000
  0.1331567814638518   0.0517231967360234   0.0000000000000000
  0.1293276562313525   0.0512528455259629   0.0000000000000000
  0.1255804504092525   0.0507745502773552   0.0000000000000000
  0.1219131281255899   0.0502885988465475   0.0000000000000000
  0.1183237015509818   0.0497952534010120   0.0000000000000000
  0.1148102318092792   0.0492947513229479   0.0000000000000000
  0.1113720175725520   0.0487874812015910   0.0000000000000000
  0.1080070759532941   0.0482736140267307   0.0000000000000000
  0.1047146335147149   0.0477534816268928   0.0000000000000000
  0.1014927513745349   0.0472272179600503   0.0000000000000000
  0.0983395479756496   0.0466949369878610   0.0000000000000000
  0.0952554508934213   0.0461571322873805   0.0000000000000000
  0.0922363866432952   0.0456135046927440   0.0000000000000000
  0.0892828700951544   0.0450645654218522   0.0000000000000000
  0.0863942718297865   0.0445106297655928   0.0000000000000000
  0.0835678320075330   0.0439515803137779   0.0000000000000000
  0.0808019575920066   0.0433874837688950   0.0000000000000000
  0.0780971710598979   0.0428188278852694   0.0000000000000000
[...]
POINT_DATA 6176
SCALARS continuity float
LOOKUP_TABLE default
-0.001952478823224042
-0.0030282446803073706
-0.0031570560599357643
-0.0029771028084151175
-0.002872012273128702
-0.002780999089231541
-0.0027602854980670628
-0.0026344112540195776
-0.002504921752012928
-0.0024138621605470493
-0.0022965888786285796
-0.0022005381576487345
-0.0021508478266775576
-0.0020886346828678233
-0.002059712711262258
-0.002042890912207158
-0.0019507375106866376
-0.0018681252213814917
-0.0017701230650486776
-0.0017020523560716647
-0.0016903460374522413
-0.0016784311558649618
-0.0016767675961488356
-0.0017108358206783959
-0.0017165475869982266
-0.001670619922442443
-0.0016081751310602864
-0.0015593385426091258
-0.0015348414516785168
-0.0015282607540730339
-0.0015168472353387736
-0.0015030829725627246
-0.00149421542468359
-0.001507567346991104
-0.0015263086079867819
-0.0015038193724677693
-0.0014530994550092078
-0.001380149414639046
-0.001347824903785002
-0.0013500100573781456
-0.0013513296660873366
-0.0013542536013248477
-0.0013659596860787823
-0.0013557664281957395
-0.0013149527085312114
-0.0012598773986684424
-0.0012284096982208151
-0.001234831340069342
-0.0012523654513964257
-0.001266768238231917
-0.0012827527738124385
-0.0012859200986106711
-0.0012634402473645123
-0.0012260953829632798
-0.0012032017263471932
-0.0012115670809859742
-0.0012359210500319383
-0.0012595085197035368
-0.0012821089677872255
-0.001300802468551778
-0.0013070365981415638
-0.0013064516702533874
-0.0013163454054358793
-0.0013423829512255521
-0.0013764791998102958
-0.0014124619003589786
-0.001452644890119572
-0.001497205657500341
-0.0015429934278965158
-0.0015859142850548297
-0.00162760138333529
-0.0016745719396209858
-0.001732448940462597
-0.0018012438878276316
-0.0018782356252547397
-0.001963269010259448
-0.0020558277408378777
-0.0021532581077483965
-0.0022549973276626838
-0.0023612003653098734
-0.0024658822135018043
-0.0025622243939487405
-0.0026453729910110324
-0.002708536384026475
-0.0027719497999854326
-0.0030225268411081564
-0.0031881358739404148
-0.0032329375860112052
-0.003303761959263483
-0.0033696605560520447
-0.0034025370361434808
-0.003394066714166414
-0.00334802486142319
-0.003273444807328274
-0.003172539905413179
-0.003042014506495677
-0.00288505085896441
-0.0027118543968419166
-0.0025254122392293424
-0.00230808541200258
-0.0020407513114501998
-0.001723422424204404
-0.0013703685799437292
-0.0009964568718672175
-0.0006071263983081483
-0.00021036923525854012
0.00017582618824062306
0.0005394305421342054
0.0008949965965345005
0.0012707754399171284
0.0016688173530844722
0.002067517054138426
0.0024423746008738465
0.0027881681624887275
0.003105629228317574
0.0033825561417864356
0.0036037703363267955
0.0037877214323924534
0.003986521112070085
0.004227835055935023
0.004486889503594059
0.00472025381006766
0.004916996355648276
0.005090581302727568
0.005243571271217984
0.005349932378456526
0.005405866005550347
0.005478947574418388
0.005630971543339044
0.005835657648304233
0.006033231856356258
0.006174951310639147
0.006277205897087171
0.006336517809642065
0.006308115235285507
0.006230758447815087
0.0063268244115872296
0.006518445975284451
0.006616567648240348
0.006666110299871503
0.006702637617762705
0.0067352396816585235
0.006757807590182101
0.0066998344630687075
0.006476695631051917
0.006321657140941946
0.006472605689966562
0.0066767752851632405
0.006737241631924053
0.006746503678457086
0.006746661115139544
0.006683662092524084
0.006568979091715296
0.006166710664811337
0.006284329638127882
0.006238746871805743
0.00626201019487092
0.006360765745885379
0.006367399176007926
0.006301169031888552
0.006325813155404806
0.006343723647500339
0.005901913329446426
0.006008899695892133
0.005988749262987327
0.005879074443557566
0.00576487299406261
0.0057182429211337414
0.005653662742046589
0.005648522616474185
0.005866962240718619
0.005561921965708317
0.0053999431817662764
0.005189169661902289
0.005078403773521468
0.004925476780105597
0.004893588024998502
0.004322360748408224
0.0047124834380131925
0.00415010724430855
0.004508524392977383
0.004032414845805466
0.004459831836158639
0.003910681073077326
0.004291441358906454
0.0037138876820427286
0.004013461766368476
0.003423114585030396
0.003678495921304632
0.0030795456515549224
0.0034308482551838795
0.003194166844837993
0.002969233932944207
0.0029363253511021426
0.0028934737215752858
0.002848050006433164
0.0026943841704678705
0.0026444580715147036
0.0025287558829586113
0.0024544844718426017
0.0022619551063908154
0.002197279926660495
0.002208802968962596
0.002321763581488855
0.002015148189373271
0.001412313343560586
0.0017283100808195518
0.001830841398973176
0.0017684099750729352
0.0018053235945725307
0.001822337570343729
0.0021649404585996684
0.0023733534445724773
0.0026644525481046124
0.0029794476833172453
0.003133257848737881
0.0029888488460058163
0.0034942316848266325
0.003484368323332225
0.0039027909839796466
0.0039692428721962054
0.003915237278360187
0.003961030379886119
0.004119521685655124
0.004162056875931907
0.004295464856608325
0.004341609782626522
0.004217687247953038
0.0043281067929052085
0.004072845492295589
0.0044509905995878405
0.004220637946929109
0.00446105150916867
0.0041137711420539125
0.0046658447874019775
0.004272285271050396
0.0047602486692698105
0.004349213598331084
0.0048185548991265545
0.0043945577074421364
0.00485165858049615
0.0044460507540606976
0.004992602208961252
0.004566584944743401
0.005096736614301426
0.004628586121561254
0.005138446860143984
0.004631013685982994
0.00510021402457053
0.0050889542091450265
0.005175514635428954
0.0050381475702542125
0.005316377611544025
0.005255584554592646
0.005326846108242271
0.005406132409915348
0.005495650470603396
0.0056127335001667335
0.005677613938010543
0.005690312549526083
0.005467215769281749
0.005844621908317185
0.005771709108298347
0.005770985399343189
0.005826701922401131
0.005764493761610326
0.005641798280722112
0.005642082635298143
0.00573500927241994
0.005791732175526553
0.005711115978168512
0.006089722492355268
0.006093855781359358
0.006066723014199603
0.0060317621656378875
0.005859004210547367
0.005684799428530471
0.005716267770981861
0.005847428762377627
0.005932082067734994
0.005952169619527129
0.005932544954148292
0.005901575331746499
0.005865213724317657
0.005817840292924233
0.005716496228248925
0.005555824283362251
0.005445435925983717
0.005437147465167087
0.005503381811280916
0.005522201755480772
0.005460407934500582
0.005359687668383245
0.005225917149871545
0.005044846734936926
0.004861104174749594
0.004730241194730329
0.0046669862180037155
0.004615350394481168
0.0045158505532477584
0.004365222683273422
0.004184092624851719
0.003973882155800196
0.0037499351299264
0.003544402328170287
0.003372933261033372
0.0032158201104678865
0.003028996127278546
0.0027933756376437636
0.0025198966573784787
0.002216750038973984
0.001882575431095686
0.00151573251582434
0.0011213324956852594
0.0007178858271598426
0.00032254709753133
-6.617395657863277e-05
-0.00046864832786907467
-0.0008955783697876986
-0.0013310069331514108
-0.0017521656099694252
-0.0021438268642188546
-0.0024914631886033293
-0.002784708741780717
-0.0030263905018645815
-0.0032335810678286838
-0.0034163281202344363
-0.0035704844192717224
-0.003685689924673861
-0.0037598664272272845
-0.003795045104912987
-0.0037951045050183822
-0.0037579996976304505
-0.003677904232386712
-0.0035542708899548086
-0.0033986144600063966
-0.0032414970562106406
-0.0031167626816160183
-0.0028451732492602386
-0.002475391017545809
-0.0023302118406893376
-0.002193952373560314
-0.002041114265225276
-0.0018805811610302728
-0.0017195850772956604
-0.0015662619527290827
-0.0014251044523956307
-0.0012964193838877463
-0.0011810154005395931
-0.0010805728569202673
-0.0009962428715197687
-0.0009296089371991349
-0.0008804057154141609
-0.000838077496041868
-0.000791572904101036
-0.0007406392034905115
-0.0006907056864991118
-0.0006452581232555384
-0.0006021143370158178
-0.0005611481204885248
-0.0005348868133939998
-0.0005290887720130365
-0.0005311612254081215
-0.000523013873329986
-0.0005030124080229181
-0.0004830219236961193
-0.0004660624250117095
-0.0004525328987251495
-0.00046801503501763187
-0.0005270669194197581
-0.0005880948959519291
-0.0006126110579449512
-0.0006226734699826838
-0.0006460836938213571
-0.0006803572103794147
-0.0007121981236468494
-0.0007327459029695582
-0.0007655628607435918
-0.0008487414038779573
-0.0009552288285122968
-0.0010134500782808086
-0.0010294494484161623
-0.0010486699057520518
-0.0010815146814462091
-0.0011166720040940875
-0.0011407487834671816
-0.0011641374979143603
-0.0012292411604602294
-0.0013345652366782814
-0.0014104123372622583
-0.0014553475025461224
-0.0014607339670488352
-0.0014611465409959561
-0.001465175859577438
-0.001469391213445967
-0.0014927616371781262
-0.0015361733686340175
-0.0015847497966532127
-0.0015561374843594059
-0.0015099648673704447
-0.0014750170408622282
-0.001446489377852009
-0.0014151988027736263
-0.0013780167199568527
-0.0013455535803197254
-0.0013743077740260448
-0.0014337423297961552
-0.001485952700615676
-0.0015346581815804052
-0.0015368991000751508
-0.0015327511757825356
-0.0015897955999798958
-0.0016525020214446806
-0.0017885101626600678
-0.0019391226633027367
-0.0020978744432423955
-0.002302414451793086
-0.002497635227207782
-0.002625431573187726
-0.0028660459979056884
-0.0031906184641240128
-0.0034099045326492
-0.0032567396559988284
-0.0026889641206234408
-0.0031353182024966807
-0.0027992075046897246
-0.0038639402900998944
-0.005004225159689053
-0.004244934220882284
-0.003132883700642768
-0.002671623262078607
4.8294500549550426e-05
-0.0029069105689809084
0.003459161218210798
-0.002863480172367909
-0.0027773889943279264
-0.0027756524490480565
0.003326933418017648
-0.002721481289282473
0.00040915898838205596
-0.0026949238538485744
0.0033643029339421636
-0.0026304589221829776
0.004632027079249038
-0.0024710245166958164
0.0031372123591378053
-0.0023627872427858677
0.0007435981175045562
-0.002262074173605977
0.0032364106753787875
-0.002159940761010016
-0.0033590864764908635
-0.0020917313556005485
0.0027482529870194177
-0.0020380220188764733
0.0010452485643964236
-0.002021610724877433
0.0031490815935730624
-0.0019946622855869438
0.004621068284692652
-0.001915290948982479
0.0025816004001199093
-0.0018237415212706157
0.001373807520951686
-0.0017389342946590811
0.0031186500257377263
-0.0016684491188112818
-0.0005105836894998221
-0.0016423981866693408
0.002345522064028264
-0.0016316094548352604
0.0017143670778609274
-0.0016477015897395394
0.0028997282950010118
-0.001673466309215941
0.00487120848690654
-0.001646562338811235
0.0025081699695050775
-0.0015987212192028481
0.002061239806672827
-0.0015406691084190185
0.0028817076404549337
-0.0015048897825990148
-0.0032165205595554905
-0.0014870273963827015
0.002451087389697426
-0.0014768151245295189
0.0023400636127340357
-0.0014647263096698698
0.003132798559373307
-0.0014543389630571333
0.005090394810831111
-0.0014510370137132398
0.002821977660404873
-0.0014750094951153233
0.002573422286316356
-0.0014779565332942502
0.0034694291182346382
-0.001453723076820989
-0.0021350572991580626
-0.001388353902776712
0.0030722672929455273
-0.0013296703004777785
0.0027819404789520296
-0.0013041788839015854
0.003645456229253869
-0.001302794720869761
0.005187344797614678
-0.0013010698411431156
0.0032588033933589945
-0.00130832782716934
0.0029701414338145706
-0.0013134360323889716
0.0038294482599398596
-0.0012920297745867072
-0.0030293604103648498
-0.0012501715951814085
0.003293776057300134
-0.0011991882064379144
0.003105922329702433
-0.001181073256354894
0.0038789337074892935
-0.0011878674522101595
0.005392772153860038
-0.0011994948298272659
0.0033457476856773964
-0.001214838417365538
0.0031964225398747165
-0.0012289341371016132
0.003669924939001959
-0.001223665722349634
-0.0010002480064061946
-0.0011956290763907769
0.0033422313427193726
-0.0011605329263153924
0.003331097511979664
-0.0011472367028683371
0.0038747230025730005
-0.0011595685890599156
0.005211807772089895
-0.0011798073128163698
0.0034837016519060605
-0.0012018912775109203
0.003519979655030398
-0.0012248400045174067
0.004151836175068512
-0.0012395142559200926
-0.0027095163766921388
-0.0012423413497532837
0.0037380876396446833
-0.001244038417426547
0.0037216466738448826
-0.0012590804231931868
0.004298948868659504
-0.001286540737729327
0.005421550193666806
-0.001318786918574763
0.004122830149688072
-0.001354254636434716
0.003881501938702764
-0.0013943540656682503
0.00457789635434797
-0.0014381680142611308
-0.004849254270344065
-0.0014820472822583634
0.004337807159789545
-0.0015232636900396456
0.003955795443974198
-0.0015644518021034524
0.004975655527774345
-0.001613075697902581
0.005489450324826961
-0.0016726320011629233
0.004627310891017474
-0.0017404166117191843
0.004025417461293117
-0.0018154973490174542
0.004996804084910459
-0.0018998158824785132
-0.0023371958584659652
-0.0019913853031907616
0.004623735093680201
-0.0020880168881815867
0.004078189513605363
-0.002190674720397885
0.004958491889558578
-0.0022963135681181718
0.0057005548801103804
-0.0023978037450292015
0.004776907329402232
-0.002489630754466044
0.004088035412014069
-0.0025689198853429684
0.005047799779097346
-0.0026297890282130855
-0.0013272649072975976
-0.0026982340292881694
0.0050959885342438
-0.002960135510494526
0.0042146318348460264
-0.0031392855546796966
0.005340004071903191
-0.0031867909481825955
0.005667835558850122
-0.0032616988326515605
0.0052984907267898075
-0.0033304409656705995
0.004133790010358401
-0.003369777330556806
0.005366998354836644
-0.0033671118571734727
-0.0019657651205713085
-0.0033233629534594753
0.005567604238348262
-0.0032480022606200445
0.004256128844674606
-0.0031470500474792868
0.005594579401193925
-0.003019152925102698
0.0054983211647919045
-0.0028638255392484926
0.005374171571363161
-0.002688261489003354
0.004369157828474088
-0.002499135281692937
0.005227044305842107
-0.002285510478098979
-0.0019248098943222083
-0.0020265681635455585
0.005296391387335778
-0.001714932331283626
0.004602606509440935
-0.0013611380081942253
0.005309926704730666
-0.0009841035462613344
0.006031065062518075
-0.0005945729107129522
0.005480826081953627
-0.00019765710052435924
0.004683691741543139
0.0001941206468530449
0.005635841224824729
0.0005679575767477171
0.004621139825678197
0.0009273073878001169
0.00573076881142107
0.0012961609487531576
0.004678328792284576
0.0016907614760616563
0.005894926056218589
0.0020937374619393657
0.005488402226044223
0.002478508885417833
0.005943606652162946
0.0028283215385703805
0.004573844123911271
0.0031461231037331074
0.0059400285851401845
0.003427610991484876
-0.0016151543895667052
0.0036639688176927894
0.005710630560812372
0.0038588467798452712
0.0046777756342693605
0.004048587348194902
0.005476131612050512
0.004277346570139914
0.005708238216894715
0.004533381145931773
0.00552324320593262
0.004779290097949523
0.004482889857006487
0.0049805098416567896
0.005783271789038559
0.005150719319315273
-0.0016961313367747735
0.005296330425052658
0.005759537196604292
0.005412641975641425
0.004463995242404185
0.005489152209085503
0.005891962452366205
0.005553824971124721
0.005619395426920856
0.00569060838052954
0.005947826784871165
0.0058773513346643885
0.004865154279788503
0.00607543991273802
0.005965330297758665
0.006224460854282804
-0.0013697729843632433
0.00631820277282957
0.00597285219692055
0.006370131905150394
0.0049337006726880095
0.0063672203473330545
0.005967963519328648
0.006319214511591075
0.0054569711059739056
0.006351511437862913
0.005737385276536817
0.006512638133540489
0.004922493803136855
0.006646630392997306
0.005642092468647388
0.0066912999021567065
-0.0014145215460590979
0.006720549870854178
0.0057636623486105555
0.0067391907826298975
0.0049050467239796555
0.006736965222398479
0.00571525720117335
0.006665339806962983
0.005402651210288203
0.006594535426845282
0.005747922121136297
0.006397371771571281
0.004827799332378962
0.0064295668482783
0.005730334170190095
0.006645317810982248
-0.002846772076615042
0.006751649338719346
0.005675722504397312
0.006754613785200352
0.0046297640807461855
0.006734157169697561
0.005539858031260204
0.006651525950771751
0.005285687647342142
0.006512617435687333
0.005378331169651451
0.006457151075676992
0.004750629257141232
0.006221447744504175
0.005215163804449505
0.006187361721094898
-0.0011288095147744147
0.006134233235185213
0.005114952783484459
0.006312473598241059
0.004647518046014524
0.006406321412182351
0.0050822638654840395
0.006349696577099954
0.0035117650561612194
0.006306936914658373
0.005023279195497524
0.006238263006236047
0.004663344804762525
0.006185175192885924
0.004925915541008146
0.005954307480684262
-0.0015628109901419263
0.005915428426253851
0.004813001028981702
0.005746025924080645
0.0045014499378634104
0.00579158626024352
0.004679620097955312
0.005613848704177727
0.0049681475057536065
0.005674767994434747
0.004510996990616837
0.005625137628422126
0.0049297059223591825
0.00560881920226348
0.004284444453687711
0.005684640582173448
-0.0009477235621539782
0.005353865824101262
0.004064722736858552
0.005335513307583108
0.005004919266195746
0.0050493330242206095
0.0038667540846549337
0.005069017113119757
-0.00595814828085249
0.00479830611644823
0.003705672396547509
0.0046785724835195705
0.005075016456312664
0.004477491883265431
0.0035185022731556164
0.0045219335086847815
-0.001940572116133016
0.0043452889420188615
0.003291459071245352
0.004485299888623421
0.0048016201389301716
0.004296528721939382
0.0030344797071016416
0.004341408303303734
0.004772923328734212
0.004136968885797349
0.0027435324251234424
0.004135169184881058
0.004803218656160445
0.0038652698033175207
0.0024158738418687408
0.003833283753728269
-0.0007126549491185152
0.0035407804336581605
0.002045096276269718
0.003481390817965677
0.00472506425756839
0.0033447928569130896
0.001665375241675888
0.0031668762990600344
0.004050267627336425
0.0031126742482140844
0.0012953992373840725
0.002866065085745434
0.004683239173503947
0.003022525058563718
0.0009454019468067153
0.0027510881449028684
-0.0017933362665746519
0.00285178769898319
0.0005853056114354634
0.0025232223695640637
0.004537715202118198
0.002662333558414643
0.00020761468060654514
0.0023246161105890052
0.005135678983867887
0.002481282245157956
-0.00017817418501969641
0.0022924978050469264
0.0043590459648839355
0.0024777033691725688
-0.0005640048147156659
0.002493311609440562
-0.0006539961495167752
0.00218591811054378
-0.0009435315401241475
0.002413454128417953
0.004703262638468609
0.00258629923736971
-0.001313252905181432
0.002704739501841377
0.0052308418706764935
0.002820536738083123
-0.0016548691515485678
0.0029413022366099567
0.004667968891446876
0.003568744070853456
-0.0019534880346039284
0.0032569375409431185
-0.0029253598123405605
0.0034511151082043776
-0.0022039656309960597
0.0036477017182057732
0.00505647203043344
0.00383039826272753
-0.00242143061033222
0.003961982625066864
0.004921464758118003
0.0039481988572674
-0.0026186048802799965
0.0038802245684972903
0.004708299496654766
0.003882030924347055
-0.002795759793365819
0.00402691109795453
-0.00045544192304100946
0.004057995019521388
-0.0029451094885188166
0.003891873858955929
0.004744975349544422
0.004109663135719615
-0.0030647116211002675
0.003905995362812962
0.0047593632694063635
0.004249296586211963
-0.0031587232256111925
0.004126927175563773
0.004777318168794803
0.004181250893179285
-0.0032261408808876863
0.004269544671128088
-0.0018444557713871148
0.004143929814480246
-0.0032612542722554524
0.004183947858088554
0.0047566969908112945
0.004217032435423341
-0.0032588177309653596
0.004373547173669939
0.004985478626656224
0.004164595241012545
-0.0032229575860230836
0.004490219047099071
-0.0010656173818616966
0.0044139901863657245
-0.003161612558206802
0.004660880110853232
-0.00010208117323842663
0.0045291284326009085
-0.0030745279666690283
0.004758704526249537
0.004497044008280743
0.004607586906594394
-0.0029944355186425657
0.004817213673845064
0.004573690460030348
0.004660943517392785
-0.00282435790432408
0.0048657626782717
-7.012739350162029e-05