# vtk DataFile Version 1.0
GRUMMP topologically 2D mesh
ASCII

DATASET UNSTRUCTURED_GRID
POINTS 6176 float
  1.0000000000000000   0.0000000000000000   0.0000000000000000
  0.9979736161243241   0.0002872981906159   0.0000000000000000
  0.9959038003591104   0.0005818082753016   0.0000000000000000
  0.9937894604158818   0.0008826109490225   0.0000000000000000
  0.9916311447855282   0.0011889740049165   0.0000000000000000
  0.9894256878168368   0.0015011074645448   0.0000000000000000
  0.9871732566523234   0.0018189104108560   0.0000000000000000
  0.9848739492731372   0.0021423104928037   0.0000000000000000
  0.9825241245750710   0.0024717658271048   0.0000000000000000
  0.9801244133260449   0.0028071825305054   0.0000000000000000
  0.9776732769852096   0.0031487906039340   0.0000000000000000
  0.9751690039483889   0.0034968357351786   0.0000000000000000
  0.9726117072730877   0.0038512643819321   0.0000000000000000
  0.9700001180350898   0.0042121148976419   0.0000000000000000
  0.9673332227148538   0.0045793859121594   0.0000000000000000
  0.9646079236541195   0.0049533708962095   0.0000000000000000
  0.9618249648196705   0.0053338679490647   0.0000000000000000
  0.9589807878895711   0.0057213439443832   0.0000000000000000
  0.9560767311296049   0.0061156062701256   0.0000000000000000
  0.9531120216710255   0.0065167463399167   0.0000000000000000
  0.9500819018783057   0.0069253778138591   0.0000000000000000
  0.9469876484068450   0.0073412143029309   0.0000000000000000
  0.9438286210030068   0.0077641908681895   0.0000000000000000
  0.9406001269296587   0.0081947829660712   0.0000000000000000
  0.9373041277084813   0.0086325757434285   0.0000000000000000
  0.9339368121646437   0.0090779560824189   0.0000000000000000
  0.9304976431076690   0.0095309377793780   0.0000000000000000
  0.9269838874379289   0.0099918267186165   0.0000000000000000
  0.9233965242394278   0.0104604374002928   0.0000000000000000
  0.9197323684717913   0.0109371203977286   0.0000000000000000
  0.9159901296799260   0.0114219111797446   0.0000000000000000
  0.9121662515702946   0.0119150917142392   0.0000000000000000
  0.9082612640703632   0.0124164093968364   0.0000000000000000
  0.9042711890176098   0.0129261849544228   0.0000000000000000
  0.9001985925103467   0.0134439182275261   0.0000000000000000
  0.8960367883853674   0.0139703538547480   0.0000000000000000
  0.8917881131106570   0.0145051006126241   0.0000000000000000
  0.8874465968544013   0.0150488093430172   0.0000000000000000
  0.8830132689405343   0.0156012428338051   0.0000000000000000
  0.8784843643309772   0.0161627200549514   0.0000000000000000
  0.8738585592690924   0.0167332093564690   0.0000000000000000
  0.8691331845657406   0.0173128340473851   0.0000000000000000
  0.8643080629784704   0.0179014022230632   0.0000000000000000
  0.8593790220315882   0.0184992057974382   0.0000000000000000
  0.8543443022105112   0.0191062525475961   0.0000000000000000
  0.8492020742372332   0.0197225542022908   0.0000000000000000
  0.8439504592998461   0.0203481184762133   0.0000000000000000
  0.8385847225217766   0.0209832807547837   0.0000000000000000
  0.8331043690503205   0.0216278714070098   0.0000000000000000
  0.8275075883744546   0.0222818740978654   0.0000000000000000
  0.8217896079901662   0.0229456038551552   0.0000000000000000
  0.8159499389768221   0.0236188617887649   0.0000000000000000
  0.8099850870934132   0.0243017702717010   0.0000000000000000
  0.8038929332928342   0.0249942623102002   0.0000000000000000
  0.7976697970229181   0.0256964297179088   0.0000000000000000
  0.7913134730328051   0.0264081777898121   0.0000000000000000
  0.7848218596203610   0.0271293903098903   0.0000000000000000
  0.7781898173908960   0.0278602762976724   0.0000000000000000
  0.7714169256365310   0.0286005013921829   0.0000000000000000
  0.7644979701754163   0.0293502351726533   0.0000000000000000
  0.7574308659438134   0.0301093068082177   0.0000000000000000
  0.7502135053150701   0.0308775557618342   0.0000000000000000
  0.7428404612557281   0.0316551512399728   0.0000000000000000
  0.7353096164115749   0.0324418730798164   0.0000000000000000
  0.7276172963491144   0.0332375368705936   0.0000000000000000
  0.7197598859172740   0.0340418579688506   0.0000000000000000
  0.7117355290536627   0.0348543282856948   0.0000000000000000
  0.7035389878799579   0.0356747811793425   0.0000000000000000
  0.6951650952820780   0.0365031090698871   0.0000000000000000
  0.6866122709923126   0.0373388258653197   0.0000000000000000
  0.6778754950330185   0.0381817369178559   0.0000000000000000
  0.6689534383202176   0.0390312029136988   0.0000000000000000
  0.6598376964403885   0.0398871771799410   0.0000000000000000
  0.6505290121117546   0.0407486821288951   0.0000000000000000
  0.6410191910005383   0.0416153892989160   0.0000000000000000
  0.6313056496470314   0.0424862165552765   0.0000000000000000
  0.6213823079172336   0.0433602824420315   0.0000000000000000
  0.6112489281649386   0.0442362457646169   0.0000000000000000
  0.6008963123926909   0.0451137308907019   0.0000000000000000
  0.5903211292528141   0.0459917803130241   0.0000000000000000
  0.5795184839365645   0.0468692540951747   0.0000000000000000
  0.5684857150099230   0.0477443424041717   0.0000000000000000
  0.5572148862675538   0.0486154402631608   0.0000000000000000
  0.5457024491672809   0.0494805599680832   0.0000000000000000
  0.5339780836677636   0.0503353194116202   0.0000000000000000
  0.5219860728183490   0.0511813660693644   0.0000000000000000
  0.5101253307512127   0.0519891081313360   0.0000000000000000
  0.4985043971600128   0.0527514649709832   0.0000000000000000
  0.4871181100865982   0.0534694955937708   0.0000000000000000
  0.4759663238182478   0.0541439373921026   0.0000000000000000
  0.4650424897306392   0.0547759224024376   0.0000000000000000
  0.4543414694194311   0.0553665338532900   0.0000000000000000
  0.4438615277983380   0.0559167464857066   0.0000000000000000
  0.4335966445555638   0.0564277439227250   0.0000000000000000
  0.4235422171719039   0.0569005367499369   0.0000000000000000
  0.4136931783754329   0.0573360485787389   0.0000000000000000
  0.4040479201781875   0.0577350333573017   0.0000000000000000
  0.3946007843384192   0.0580984587592611   0.0000000000000000
  0.3853459130056055   0.0584273588583778   0.0000000000000000
  0.3762828394437238   0.0587225582688298   0.0000000000000000
  0.3674052759622001   0.0589850521268143   0.0000000000000000
  0.3587104110044708   0.0592156767487264   0.0000000000000000
  0.3501952433465900   0.0594152538281565   0.0000000000000000
  0.3418548081050912   0.0595846279097528   0.0000000000000000
  0.3336858663230149   0.0597246577421592   0.0000000000000000
  0.3256868701986138   0.0598362486465025   0.0000000000000000
  0.3178507769372301   0.0599203474438374   0.0000000000000000
  0.3101776523444911   0.0599777679649948   0.0000000000000000
  0.3026620994593082   0.0600092896252224   0.0000000000000000
  0.2953022098091474   0.0600156089816429   0.0000000000000000
  0.2880942515540157   0.0599974067416477   0.0000000000000000
  0.2810344582773878   0.0599553507162620   0.0000000000000000
  0.2741224198462300   0.0598902308958287   0.0000000000000000
  0.2673508102792782   0.0598027829062179   0.0000000000000000
  0.2607208372897423   0.0596938009430880   0.0000000000000000
  0.2542268737219818   0.0595639532054747   0.0000000000000000
  0.2478699323930078   0.0594139942796022   0.0000000000000000
  0.2416426526986943   0.0592444560641495   0.0000000000000000
  0.2355443386744786   0.0590559928562533   0.0000000000000000
  0.2295742285057687   0.0588492600763349   0.0000000000000000
  0.2237267309732288   0.0586247739586633   0.0000000000000000
  0.2180011540540604   0.0583832555000465   0.0000000000000000
  0.2123936096745636   0.0581252700988444   0.0000000000000000
  0.2069018249031851   0.0578514118247249   0.0000000000000000
  0.2015265925874962   0.0575624139311738   0.0000000000000000
  0.1962639217171782   0.0572587327640815   0.0000000000000000
  0.1911098627978642   0.0569407701058159   0.0000000000000000
  0.1860635373512509   0.0566090833477142   0.0000000000000000
  0.1811225555455632   0.0562641183158228   0.0000000000000000
  0.1762831066659017   0.0559062017034564   0.0000000000000000
  0.1715472965099615   0.0555361405439852   0.0000000000000000
  0.1669099315072494   0.0551541804881659   0.0000000000000000
  0.1623702175183220   0.0547608759938091   0.0000000000000000
  0.1579259317985442   0.0543566416724963   0.0000000000000000
  0.1535748664842349   0.0539418626674859   0.0000000000000000
  0.1493147619729656   0.0535168899310313   0.0000000000000000
  0.1451447283274916   0.0530821904592715   0.0000000000000000
  0.1410625235604109   0.0526380756497570   0.0000000000000000
  0.1370659530359299   0.0521848322503466   0.0000000000000000
  0.1331567814638518   0.0517231967360234   0.0000000000000000
  0.1293276562313525   0.0512528455259629   0.0000000000000000
  0.1255804504092525   0.0507745502773552   0.0000000000000000
  0.1219131281255899   0.0502885988465475   0.0000000000000000
  0.1183237015509818   0.0497952534010120   0.0000000000000000
  0.1148102318092792   0.0492947513229479   0.0000000000000000
  0.1113720175725520   0.0487874812015910   0.0000000000000000
  0.1080070759532941   0.0482736140267307   0.0000000000000000
  0.1047146335147149   0.0477534816268928   0.0000000000000000
  0.1014927513745349   0.0472272179600503   0.0000000000000000
  0.0983395479756496   0.0466949369878610   0.0000000000000000
  0.0952554508934213   0.0461571322873805   0.0000000000000000
  0.0922363866432952   0.0456135046927440   0.0000000000000000
  0.0892828700951544   0.0450645654218522   0.0000000000000000
  0.0863942718297865   0.0445106297655928   0.0000000000000000
  0.0835678320075330   0.0439515803137779   0.0000000000000000
  0.0808019575920066   0.0433874837688950   0.0000000000000000
  0.0780971710598979   0.0428188278852694   0.0000000000000000
[...]
POINT_DATA 6176
SCALARS continuity float
LOOKUP_TABLE default
0.0002994564799509041
0.0001541599811977929
0.00018111399032327697
0.0001955601301183024
0.0001634096887574595
0.00014589488081162574
0.00013324481074455211
0.00012527124584360192
0.00011857228432098333
0.00011085587233362995
0.00010414826767820658
9.864571592679426e-05
8.949362993338423e-05
7.936688022690871e-05
6.718702459675492e-05
5.256978267631335e-05
3.8849686812671426e-05
2.6841416227507975e-05
1.3883038502311629e-05
3.526585601116687e-06
-1.3881623015594882e-05
-3.2253508726118974e-05
-5.2644322729294805e-05
-7.55969304281433e-05
-9.654992940139765e-05
-0.0001157804975511801
-0.00013528827040862646
-0.00015697299553449578
-0.00017833895562186278
-0.00020047945949984208
-0.00022348222567879133
-0.0002473140473948398
-0.0002717986888194784
-0.00029653475221040886
-0.0003198022888480911
-0.0003414336788829799
-0.00036207930476288145
-0.00038292109987171245
-0.00040386583040128235
-0.0004257458490489546
-0.00044886400607349754
-0.0004728423629530239
-0.0004966190514566903
-0.0005186212484182659
-0.00053893802800706
-0.0005591340091757139
-0.0005806271927308232
-0.0006047767635829993
-0.0006316662960491047
-0.0006597283130100402
-0.0006872931784337376
-0.0007129675203826884
-0.0007362835787859208
-0.0007587199514201751
-0.0007825008197051935
-0.0008098870778319512
-0.0008410497146586092
-0.0008736775043351487
-0.0009057344152413237
-0.0009358433780894516
-0.0009629550507393133
-0.0009877756725153695
-0.001013356640378785
-0.0010421042872966696
-0.0010737008615122438
-0.0011060252183516923
-0.0011381441901398203
-0.001170499517848852
-0.0012033995557397298
-0.0012354412745057238
-0.0012642348046296688
-0.0012895604695724102
-0.0013143354056817515
-0.00134162413399337
-0.0013715586631386128
-0.001401416563725419
-0.0014290736023220884
-0.0014538476961779895
-0.0014754582206155367
-0.0014941570231942155
-0.0015113407477338617
-0.001527916814126369
-0.001543130611871965
-0.0015559087509505569
-0.0015681944918456497
-0.001595017772479625
-0.0016071249544649916
-0.0016031196328505162
-0.0016026375335786137
-0.0016029028643831642
-0.0015998637725252178
-0.0015926216939712821
-0.001582252303071576
-0.001569928262574648
-0.0015559865005195916
-0.0015404318925679578
-0.0015238785952410025
-0.0015074084181331763
-0.0014912254713130245
-0.0014740674151449194
-0.0014551384418546624
-0.001435019261173419
-0.001415250321690755
-0.0013967257034329787
-0.0013795756225250177
-0.0013642791666435212
-0.0013517270539364385
-0.0013423003828293225
-0.0013346749986818528
-0.001327895079920827
-0.001322878918563377
-0.0013213042758911167
-0.0013240886436630306
-0.0013309265296981153
-0.0013416127852158286
-0.001356675650788969
-0.0013761925702500673
-0.001398392660255238
-0.0014213080696133887
-0.0014459402350157754
-0.0014739869390044671
-0.0015066186593081239
-0.001543150232180523
-0.0015832288024420671
-0.0016267844800484984
-0.0016736995116536097
-0.0017224069514912678
-0.0017708771414477456
-0.0018200928989212568
-0.0018715205878320881
-0.0019269691789826477
-0.0019860829834646085
-0.0020485693304887875
-0.002113517848850284
-0.0021789510502283676
-0.0022417427722522245
-0.0023097024962954963
-0.0023824142865113292
-0.0024542035050674877
-0.002528144912507305
-0.00260420885791561
-0.0026823225864927606
-0.0027630559691313827
-0.0028445821217173554
-0.0029233143517229353
-0.0030078333986428446
-0.0030899897029861368
-0.0031694162112989874
-0.0032535953803219052
-0.0033414466423330926
-0.003431244003170605
-0.0035218308491531763
-0.0036110408891216086
-0.003690744080289815
-0.0037558657923233815
-0.0038459904931379776
-0.003942640234208964
-0.004037834497132556
-0.004121527550424289
-0.004209908441955477
-0.0042990803204306025
-0.00439257756808807
-0.004476320812642914
-0.0045447682295751985
-0.004635107506135916
-0.004718224856037193
-0.004800778761261393
-0.004880121056024117
-0.0049564788776859
-0.005034712587282726
-0.00511935721141974
-0.005211677550002248
-0.0052844290013136595
-0.005354455191645377
-0.005422347073233564
-0.005490483779772972
-0.00555806361387571
-0.005616429434432366
-0.005668992551889081
-0.0057284740519200255
-0.005764371174525148
-0.0058086527774456045
-0.005826068733836546
-0.005860225163003034
-0.005868643176339479
-0.005892694995658837
-0.005886302412687376
-0.005893621374340937
-0.005865619314609735
-0.005845620670935355
-0.0057982708846011375
-0.005747665380007992
-0.005691324806735669
-0.005602192049076037
-0.005501082342039034
-0.0053810232457975025
-0.005254951462303975
-0.005101922207875881
-0.004933426458904315
-0.00473135777446513
-0.004500865320552772
-0.004214747121329195
-0.003864485186680122
-0.0034702000634714634
-0.0030981469246974726
-0.002698884305581788
-0.0020773673448908027
-0.0014619867228726421
-0.0008600052446593923
-0.0002650414229882347
0.0004901151106067851
0.0012068483961876235
0.0017532835644449634
0.002303047413312126
0.002849994771988793
0.0033920888871242353
0.003965539604967506
0.004325936208147676
0.004724999120386504
0.005066614333144946
0.005408730766253899
0.005684517995975628
0.005887856342759077
0.006036409767468613
0.006158788218476743
0.006244293092702438
0.00632124341503992
0.006381189793274745
0.006410338961243239
0.006436895074997551
0.0064206002630414725
0.006416326691921221
0.0063704236348239435
0.00635102442332191
0.006275828932958163
0.006236668102160745
0.006149840614985059
0.006093902238759645
0.005995911979914649
0.0059266202217820845
0.0058194399155104114
0.0057363500086721
0.00562146601315651
0.005536952077241267
0.0054123021290941875
0.005322009909945267
0.005193613821151407
0.005099384990145265
0.004990974061686834
0.004877241054630371
0.004766875906710326
0.004650269662322252
0.0045181823546959245
0.004376933335823773
0.004253956857216078
0.004130598925098612
0.004009788377141401
0.0038875360620059156
0.0037668483219061672
0.0036390584232498012
0.003550558265703292
0.0034311936143247854
0.0033122504058467083
0.0031943793983639827
0.0030807374320889337
0.0029752173261640485
0.0028466015359248573
0.00272281452368863
0.002609989851944179
0.002489062186145199
0.0024071490096748455
0.0023043616410972903
0.002195408009839393
0.0020859759154877237
0.0019812495336588615
0.0018787419452935957
0.0017746347562697
0.0016711265937094314
0.001574123555724865
0.0014803980918127785
0.001386555897932979
0.0012918827026159616
0.0011993245895474307
0.0011094661403091162
0.0010236571738012816
0.0009413512446040423
0.000858980200782434
0.0007793879433907943
0.0007007713732028413
0.0006287797348718694
0.0005583527106763895
0.0004896511771192616
0.00042446215134100805
0.00036358281377116654
0.0003061970370829641
0.00025191426530046384
0.00019936174430787025
0.00014919261529137336
0.00010111140089076887
5.659475283923495e-05
1.706331656260897e-05
-1.7356749190760185e-05
-4.68730055832718e-05
-7.176144237540392e-05
-9.332942571413675e-05
-0.00011229104017113016
-0.00012922041366377588
-0.00014195364236459812
-0.00014869719595984044
-0.0001493180150414584
-0.0001437745295534609
-0.00013191493622330625
-0.00011356421401585795
-8.878013515766405e-05
-5.875262696048151e-05
-2.47263615650299e-05
1.2715177165103395e-05
5.477229785090509e-05
0.0001027483218677326
0.00015562008727185194
0.00021201764085331464
0.0002706184084940203
0.00032986471379993693
0.00038844540712407286
0.00044665126800412947
0.0005057520310024869
0.0005663101653011542
0.0006273810578797281
0.000688079291526787
0.0007476692532599797
0.0008056529205857635
0.0008618013197288967
0.000915164254105138
0.0009646458075591232
0.001009841940644948
0.0010525095048650205
0.0010972056356816238
0.0011466640646820448
0.0011838126028771133
0.0011997089306575192
0.0012233152348076863
0.0012444640699158308
0.0012610170795543077
0.0012743940194059882
0.0012857700275919416
0.0012946377757019334
0.0012996892040207314
0.001300705577174959
0.001297899758790894
0.0012921215626350124
0.0012861177807736335
0.0012830190052094215
0.0012810461837325885
0.0012756264182562998
0.0012657904241023391
0.0012538104520679921
0.001240884191936571
0.0012264558111517423
0.0012098612318636051
0.0011932716070824436
0.0011802470375359521
0.0011708418690393526
0.0011615936333192601
0.001149317631371586
0.0011332727597028454
0.0011146870961181482
0.001095305921316859
0.0010776988019567833
0.0010651270830037128
0.001057129364377308
0.0010488518028673303
0.0010372654078238306
0.001024175096049353
0.0010114778833843492
0.0009989579968227174
0.0009860736690140445
0.0009741389132445202
0.0009655093405915612
0.000960568162857768
0.0009567242584418565
0.0009503434114953023
0.0009406410360863362
0.0009295821386495718
0.0009186559884883191
0.0009076450004257911
0.0008970350537883549
0.0008880834209747931
0.0008808949585968832
0.0008742310423247305
0.0008673384470284835
0.0008587289010788901
0.0008476930520176973
0.0008350339155278099
0.0008223444232728529
0.0008099290391264584
0.0007975128676638457
0.0007838540604293
0.0007704419020307934
0.0007546075129830921
0.000734716421928948
0.0007150373445584069
0.0006953238856017565
0.0006750968641451622
0.0006548066313334649
0.0006342674400287864
0.0006203748054575657
0.0006040853320792218
0.0005876013715446462
0.0005672850751730098
0.0005458242580882151
0.0005268165452540423
0.0005111907663444137
0.0004968531624039769
0.0004889717127555815
0.00047990518763280917
0.0004704146551316572
0.00046315921579810767
0.00045434061997381693
0.00044130789915135184
0.0004255997745969554
0.00039668772205533545
0.0004071098840827401
0.00045587114257224996
0.00022606589782990375
0.00040143845771401437
0.0004796133401372973
0.0004283932553941306
0.0003173620024662798
0.00022708941531135972
0.00018042872311916427
0.0002547292970708123
-0.0012223261304432004
0.00020940168822403403
-0.0034275368793920957
0.000177432248025996
-0.0037563017289868393
0.0001551819349856403
-0.003957656390142212
0.0001404302502583799
-0.00121619955669387
0.00012886366184285242
-0.00438918298581986
0.00012193135291318797
-0.005991583621281135
0.00011458782833458606
-0.004763027302265258
0.0001065478645974701
-0.0012132251570636202
0.00010091745696681803
-0.004969830357308878
9.153053282878034e-05
-0.0012882906843934311
8.347906283181327e-05
-0.005232067175934782
7.321524713582038e-05
-0.0012138127915293682
6.0007468815891276e-05
-0.005337279309618113
4.658335120318613e-05
-0.0062335341010898195
3.619694590331902e-05
-0.005549721762496371
2.3618699585671813e-05
-0.001217055559271481
1.3246386047341767e-05
-0.005606417109899472
-4.026986038442712e-06
-0.0025724807474477216
-2.0755229010257386e-05
-0.0057988381924761415
-3.9267018269185625e-05
-0.001224827583903802
-6.015350500835528e-05
-0.005827333394771797
-8.428642262323767e-05
-0.006327575007823704
-0.00010516998565482746
-0.005980826823168537
-0.0001254162420408472
-0.0012366514447403052
-0.00014295184209558385
-0.005990201453734641
-0.00016428196893701188
-0.0013102727504714267
-0.00018579304724100238
-0.0061125771367570424
-0.00020803706440252444
-0.0012549479799542796
-0.00023116189438282555
-0.006072187561369917
-0.00025524954987426275
-0.006409569870978884
-0.00028002040180098085
-0.006164150462889667
-0.00030391272956965885
-0.0012781017864752495
-0.00032638379269068514
-0.006149122120003381
-0.00034795894590488626
-0.0029980238676586405
-0.0003690785827893401
-0.006177520378502931
-0.0003901481196015735
-0.001306593993497608
-0.00041135851108622316
-0.006153920783758804
-0.0004335908203431645
-0.006472927541746098
-0.00045689881838495525
-0.00616758593373937
-0.00048077963216742927
-0.0013389667635288179
-0.0005036196295680333
-0.006130490808125421
-0.0005247826194953519
-0.0013189841814364948
-0.0005450511555017688
-0.006127899174938363
-0.0005654707655059841
-0.0013705688497928981
-0.0005876674658438486
-0.006082976491966904
-0.0006125661978179538
-0.0064753942352877795
-0.000639566976899742
-0.006072061441447417
-0.0006673619824845839
-0.0014115636498414838
-0.0006941588275469651
-0.00606820212127739
-0.0007186987507292753
-0.0026370471105354332
-0.0007414335908617144
-0.0059397107656356755
-0.0007638252372951752
-0.0014453035679237813
-0.0007884252759278187
-0.005965647107545225
-0.0008167675357645118
-0.0064889379423437995
-0.0008480563415967376
-0.00583192677741177
-0.0008803144226888359
-0.0014902762438368502
-0.0009118483186307954
-0.00579817662938157
-0.0009408683260086057
-0.0013409013998486655
-0.000966878975985742
-0.005756035861893556
-0.000991573860873741
-0.0015392383492822982
-0.001017968089566185
-0.005674049689916059
-0.0010474348445291056
-0.00643867499580295
-0.0010788431878670799
-0.005618000697687534
-0.0011106440992765157
-0.001597740956004324
-0.001142519878557288
-0.005528943893187369
-0.0011749613248977846
-0.002984290202929599
-0.0012077357184754965
-0.005464838478951913
-0.0012387678983908268
-0.0016572634557983983
-0.0012660454184174011
-0.005364118996900231
-0.0012905555593552159
-0.006377073461737607
-0.0013156803953164441
-0.00530265588716109
-0.001343706180482213
-0.001721098195249182
-0.0013735337421311613
-0.005215634744491027
-0.0014024849571342244
-0.0013634060932998428
-0.0014291290189255464
-0.0050824413034243985
-0.0014528384934772
-0.001787354221210417
-0.0014732378119080949
-0.005048510297829989
-0.00149110679570541
-0.006275131737850834
-0.0015079795218364733
-0.004929888570124159
-0.001524126693641716
-0.001849171002593861
-0.0015383965517387769
-0.004911333253121731
-0.001550300184082371
-0.002517490713992964
-0.0015619218033330149
-0.004839706435550544
-0.0015865048147680378
-0.0018869785960291077
-0.0016009590698239796
-0.004684796741225321
-0.0015959505808348917
-0.006173881162040591
-0.0015950014791561347
-0.0046006863804948055
-0.0015951939355240462
-0.0019745898964433155
-0.0015923308723488421
-0.004473274710316183
-0.0015849902978281583
-0.0013999561611137174
-0.0015741816482420668
-0.004353951103742522
-0.001561323747494154
-0.0020321373110610014
-0.0015468808928336508
-0.004245907677502081
-0.0015309001417902045
-0.006056615302901372
-0.0015138544667379615
-0.004185021864804843
-0.0014966057042078377
-0.0021199773860811296
-0.0014798493104938731
-0.004087849294130845
-0.001462369391452341
-0.0031339849880230603
-0.0014430830268850434
-0.0040238730290172685
-0.0014223472588957898
-0.0021814720258298025
-0.0014017141088764646
-0.003960429532758346
-0.001382288077762865
-0.005967711753979369
-0.0013643346749109219
-0.0038538489211302814
-0.001348232653824815
-0.002268759076162766
-0.0013347600288058563
-0.003737555849456843
-0.0013245320771182385
0.005462415667667569
-0.001316593797738918
-0.0036609931589811095
-0.001309368568532501
-0.002357754739450569
-0.0013036855754966453
-0.0035540223875693533
-0.0013009475636490042
-0.005851481854643873
-0.0013027126807930085
-0.003449942904093187
-0.0013087160709973247
-0.002442531725764321
-0.0013187194235666161
-0.003348891647193755
-0.0013329801347119977
-0.0009793166547201221
-0.0013517700970631479
-0.003269825746715837
-0.0013741110998381758
-0.0024816825867028393
-0.0013973165429868467
-0.003195922995130953
-0.0014216652956918537
-0.005709864414302456
-0.0014490091016185456
-0.003119746688863695
-0.0014809106725049456
-0.0026158137189717418
-0.0015172990862467007
-0.0030065096431451093
-0.0015571947565872035
-0.0014389315731901443
-0.0016006154662017997
-0.0029458429525467864
-0.0016473598694790622
-0.002715382289955263
-0.0016962749979693482
-0.002856255611961729
-0.0017461483383360633
-0.005584334801855059
-0.0017966873416482597
-0.0027629486563198313
-0.0018482888947368218
-0.0027383084679559696
-0.0019031108223308572
-0.002673320210027627
-0.0019623972463022644
-0.0024767890408630287
-0.002025786825293037
-0.0025869755789634957
-0.0020917617966243664
-0.0028287718603836106
-0.0021574492641107616
-0.002503088670474437
-0.0022232720963093412
-0.005506479245013474
-0.0022886244647567743
-0.002427711429493339
-0.002360655347243267
-0.002928787702793409
-0.0024353382187784745
-0.0023465516357548235
-0.0025107404870486996
-0.0014841564610296007
-0.0025886013229976393
-0.002265236827454167
-0.0026688135411141755
-0.0030345025192422452
-0.002751268301653364
-0.002211397511150815
-0.002833968344534868
-0.005337403945451479
-0.0029064306886577977
-0.0021418285919138523
-0.002986847906893234
-0.003152481967571856
-0.00307352136224526
-0.002068555487729941
-0.0031587024730009134
-0.003698417405339756
-0.003244696712173046
-0.0019986358176171826
-0.0033345371576486028
-0.003267197282528043
-0.003428132494435475
-0.0019283463595022876
-0.0035217507596785567
-0.005107427611979712
-0.003614162710897607
-0.0018670742813290608
-0.003690615838733186
-0.0033133621935848116
-0.0037827590642348463
-0.0018082101003637024
-0.003863793295351547
-0.0015325016400473679
-0.003943836419405553
-0.0017574458171990535
-0.004030733272378895
-0.0034658393238970837
-0.004120439921892772
-0.0017016504557545494
-0.004213919236419896
-0.0039014717838245045
-0.0043107057180590555
-0.0016511168827382011
-0.004408738391506974
-0.003515666750248155
-0.0044950852998823536
-0.0015991296348859994
-0.004599733217526778
-0.0022824254973503036
-0.00468070285953983
-0.0015502017604579652
-0.00475462565781118
-0.0035869138897179193
-0.004837515830309652
-0.0015053053174191992
-0.004910820518206812
-0.005008232792028592
-0.004991685601916319
-0.0014643198805719033
-0.005067062258916012
-0.0036469085577492664
-0.005163700501040734
-0.0014279704065270364
-0.00522001681938518
-0.0015784679466988348
-0.005315880299236412
-0.0013956786134621515
-0.005367421649139139
-0.003735173024216953
-0.005456316942936758
-0.001366781690056053
-0.005506511589811874
-0.0012414736281784343
-0.005589835219280536
-0.0013401683984699407
-0.005636768700307831
-0.0038512752604054957
-0.005719683464923617
-0.0013160576219270715
-0.005744737196032602
-0.003278825410794917
-0.005816946383893133
-0.0012951473401697385
-0.005826185402231929
-0.003991790157944261
-0.0058807216752372
-0.0012781357245582141
-0.005882269633515117
-0.004884835376725192
-0.005930758286065946
-0.0012658497581615365
-0.005917800392480581
-0.004075189543584094
-0.005953943304271481
-0.0012577138350398315
-0.0059217417473080135
-0.0015828859785540403
-0.005941786465452272
-0.0012542291118573974
-0.005892674321789897
-0.004270885415033164
-0.005872959403958425
-0.0012550877978680548
-0.005819621810879123
0.00500754187045306
-0.0057653185084153066
-0.0012592585354901796
-0.005685787269519256
-0.004356978232591268
-0.005589693199306505
-0.001265463507130187
-0.005488208755546797
-0.0023111850218259754
-0.005368771794116091
-0.0012733503303322116
-0.005246810842697119
-0.00440156528366652
-0.005088296887709149
-0.0012839323624012089
-0.004936019522558713
-0.004835641067687266
-0.004720664200721288
-0.0012974829057349824
-0.004505287669403426
-0.00439634391211394
-0.0041924414781006995
-0.0013138178934450398
-0.0038129327107346033
-0.0016853535094904395
-0.0033188005394101596
-0.0013321724145245975
-0.0028153049453326366
-0.004527009203873105
-0.002234330109837278
-0.0013521015544800225
-0.0016065523756133627
-0.004724709374626082
-0.0009692923771584659
-0.0013733118280173484
-0.00035412336995418575
-0.004573290907206466
0.0003263277542690652
-0.0013945510401539563
0.0010450938441992558
-0.004532320833319057
0.0016235239062802535
-0.0014149780254238702
0.0022114627729620403
-0.004618798002030385
0.002794477171940088
-0.001433907171851621
0.003363583839305299
-0.004614072324274213
0.003926577388684007
-0.0014527056754194982
0.004461374339543368
-0.004814685137046238
0.004906739612635561
-0.001471721698765191
0.005271039945150937
-0.0017269878509690684
0.005600362574179907
-0.0014903690108531728
0.005853865808803043
-0.004970908033845611
0.006005749405032676
-0.0015079442727440847
0.006154945457799066
-0.004466682804880629
0.006234922669406707
-0.001523987573955062
0.006315044855089922
-0.005116972300543456
0.006381808900548418
-0.0015385896435298094
0.006421082416312342
-0.0022111195481097747
0.006458619460811888
-0.0015512188556729683
0.006449840806107832
-0.0052231812840782465
0.006453495651708943
-0.001560608228613846
0.006417865240793406