# vtk DataFile Version 1.0
GRUMMP topologically 2D mesh
ASCII

DATASET UNSTRUCTURED_GRID
POINTS 6176 float
  1.0000000000000000   0.0000000000000000   0.0000000000000000
  0.9979736161243241   0.0002872981906159   0.0000000000000000
  0.9959038003591104   0.0005818082753016   0.0000000000000000
  0.9937894604158818   0.0008826109490225   0.0000000000000000
  0.9916311447855282   0.0011889740049165   0.0000000000000000
  0.9894256878168368   0.0015011074645448   0.0000000000000000
  0.9871732566523234   0.0018189104108560   0.0000000000000000
  0.9848739492731372   0.0021423104928037   0.0000000000000000
  0.9825241245750710   0.0024717658271048   0.0000000000000000
  0.9801244133260449   0.0028071825305054   0.0000000000000000
  0.9776732769852096   0.0031487906039340   0.0000000000000000
  0.9751690039483889   0.0034968357351786   0.0000000000000000
  0.9726117072730877   0.0038512643819321   0.0000000000000000
  0.9700001180350898   0.0042121148976419   0.0000000000000000
  0.9673332227148538   0.0045793859121594   0.0000000000000000
  0.9646079236541195   0.0049533708962095   0.0000000000000000
  0.9618249648196705   0.0053338679490647   0.0000000000000000
  0.9589807878895711   0.0057213439443832   0.0000000000000000
  0.9560767311296049   0.0061156062701256   0.0000000000000000
  0.9531120216710255   0.0065167463399167   0.0000000000000000
  0.9500819018783057   0.0069253778138591   0.0000000000000000
  0.9469876484068450   0.0073412143029309   0.0000000000000000
  0.9438286210030068   0.0077641908681895   0.0000000000000000
  0.9406001269296587   0.0081947829660712   0.0000000000000000
  0.9373041277084813   0.0086325757434285   0.0000000000000000
  0.9339368121646437   0.0090779560824189   0.0000000000000000
  0.9304976431076690   0.0095309377793780   0.0000000000000000
  0.9269838874379289   0.0099918267186165   0.0000000000000000
  0.9233965242394278   0.0104604374002928   0.0000000000000000
  0.9197323684717913   0.0109371203977286   0.0000000000000000
  0.9159901296799260   0.0114219111797446   0.0000000000000000
  0.9121662515702946   0.0119150917142392   0.0000000000000000
  0.9082612640703632   0.0124164093968364   0.0000000000000000
  0.9042711890176098   0.0129261849544228   0.0000000000000000
  0.9001985925103467   0.0134439182275261   0.0000000000000000
  0.8960367883853674   0.0139703538547480   0.0000000000000000
  0.8917881131106570   0.0145051006126241   0.0000000000000000
  0.8874465968544013   0.0150488093430172   0.0000000000000000
  0.8830132689405343   0.0156012428338051   0.0000000000000000
  0.8784843643309772   0.0161627200549514   0.0000000000000000
  0.8738585592690924   0.0167332093564690   0.0000000000000000
  0.8691331845657406   0.0173128340473851   0.0000000000000000
  0.8643080629784704   0.0179014022230632   0.0000000000000000
  0.8593790220315882   0.0184992057974382   0.0000000000000000
  0.8543443022105112   0.0191062525475961   0.0000000000000000
  0.8492020742372332   0.0197225542022908   0.0000000000000000
  0.8439504592998461   0.0203481184762133   0.0000000000000000
  0.8385847225217766   0.0209832807547837   0.0000000000000000
  0.8331043690503205   0.0216278714070098   0.0000000000000000
  0.8275075883744546   0.0222818740978654   0.0000000000000000
  0.8217896079901662   0.0229456038551552   0.0000000000000000
  0.8159499389768221   0.0236188617887649   0.0000000000000000
  0.8099850870934132   0.0243017702717010   0.0000000000000000
  0.8038929332928342   0.0249942623102002   0.0000000000000000
  0.7976697970229181   0.0256964297179088   0.0000000000000000
  0.7913134730328051   0.0264081777898121   0.0000000000000000
  0.7848218596203610   0.0271293903098903   0.0000000000000000
  0.7781898173908960   0.0278602762976724   0.0000000000000000
  0.7714169256365310   0.0286005013921829   0.0000000000000000
  0.7644979701754163   0.0293502351726533   0.0000000000000000
  0.7574308659438134   0.0301093068082177   0.0000000000000000
  0.7502135053150701   0.0308775557618342   0.0000000000000000
  0.7428404612557281   0.0316551512399728   0.0000000000000000
  0.7353096164115749   0.0324418730798164   0.0000000000000000
  0.7276172963491144   0.0332375368705936   0.0000000000000000
  0.7197598859172740   0.0340418579688506   0.0000000000000000
  0.7117355290536627   0.0348543282856948   0.0000000000000000
  0.7035389878799579   0.0356747811793425   0.0000000000000000
  0.6951650952820780   0.0365031090698871   0.0000000000000000
  0.6866122709923126   0.0373388258653197   0.0000000000000000
  0.6778754950330185   0.0381817369178559   0.0000000000000000
  0.6689534383202176   0.0390312029136988   0.0000000000000000
  0.6598376964403885   0.0398871771799410   0.0000000000000000
  0.6505290121117546   0.0407486821288951   0.0000000000000000
  0.6410191910005383   0.0416153892989160   0.0000000000000000
  0.6313056496470314   0.0424862165552765   0.0000000000000000
  0.6213823079172336   0.0433602824420315   0.0000000000000000
  0.6112489281649386   0.0442362457646169   0.0000000000000000
  0.6008963123926909   0.0451137308907019   0.0000000000000000
  0.5903211292528141   0.0459917803130241   0.0000000000000000
  0.5795184839365645   0.0468692540951747   0.0000000000000000
  0.5684857150099230   0.0477443424041717   0.0000000000000000
  0.5572148862675538   0.0486154402631608   0.0000000000000000
  0.5457024491672809   0.0494805599680832   0.0000000000000000
  0.5339780836677636   0.0503353194116202   0.0000000000000000
  0.5219860728183490   0.0511813660693644   0.0000000000000000
  0.5101253307512127   0.0519891081313360   0.0000000000000000
  0.4985043971600128   0.0527514649709832   0.0000000000000000
  0.4871181100865982   0.0534694955937708   0.0000000000000000
  0.4759663238182478   0.0541439373921026   0.0000000000000000
  0.4650424897306392   0.0547759224024376   0.0000000000000000
  0.4543414694194311   0.0553665338532900   0.0000000000000000
  0.4438615277983380   0.0559167464857066   0.0000000000000000
  0.4335966445555638   0.0564277439227250   0.0000000000000000
  0.4235422171719039   0.0569005367499369   0.0000000000000000
  0.4136931783754329   0.0573360485787389   0.0000000000000000
  0.4040479201781875   0.0577350333573017   0.0000000000000000
  0.3946007843384192   0.0580984587592611   0.0000000000000000
  0.3853459130056055   0.0584273588583778   0.0000000000000000
  0.3762828394437238   0.0587225582688298   0.0000000000000000
  0.3674052759622001   0.0589850521268143   0.0000000000000000
  0.3587104110044708   0.0592156767487264   0.0000000000000000
  0.3501952433465900   0.0594152538281565   0.0000000000000000
  0.3418548081050912   0.0595846279097528   0.0000000000000000
  0.3336858663230149   0.0597246577421592   0.0000000000000000
  0.3256868701986138   0.0598362486465025   0.0000000000000000
  0.3178507769372301   0.0599203474438374   0.0000000000000000
  0.3101776523444911   0.0599777679649948   0.0000000000000000
  0.3026620994593082   0.0600092896252224   0.0000000000000000
  0.2953022098091474   0.0600156089816429   0.0000000000000000
  0.2880942515540157   0.0599974067416477   0.0000000000000000
  0.2810344582773878   0.0599553507162620   0.0000000000000000
  0.2741224198462300   0.0598902308958287   0.0000000000000000
  0.2673508102792782   0.0598027829062179   0.0000000000000000
  0.2607208372897423   0.0596938009430880   0.0000000000000000
  0.2542268737219818   0.0595639532054747   0.0000000000000000
  0.2478699323930078   0.0594139942796022   0.0000000000000000
  0.2416426526986943   0.0592444560641495   0.0000000000000000
  0.2355443386744786   0.0590559928562533   0.0000000000000000
  0.2295742285057687   0.0588492600763349   0.0000000000000000
  0.2237267309732288   0.0586247739586633   0.0000000000000000
  0.2180011540540604   0.0583832555000465   0.0000000000000000
  0.2123936096745636   0.0581252700988444   0.0000000000000000
  0.2069018249031851   0.0578514118247249   0.0000000000000000
  0.2015265925874962   0.0575624139311738   0.0000000000000000
  0.1962639217171782   0.0572587327640815   0.0000000000000000
  0.1911098627978642   0.0569407701058159   0.0000000000000000
  0.1860635373512509   0.0566090833477142   0.0000000000000000
  0.1811225555455632   0.0562641183158228   0.0000000000000000
  0.1762831066659017   0.0559062017034564   0.0000000000000000
  0.1715472965099615   0.0555361405439852   0.0000000000000000
  0.1669099315072494   0.0551541804881659   0.0000000000000000
  0.1623702175183220   0.0547608759938091   0.0000000000000000
  0.1579259317985442   0.0543566416724963   0.0000000000000000
  0.1535748664842349   0.0539418626674859   0.0000000000000000
  0.1493147619729656   0.0535168899310313   0.0000000000000000
  0.1451447283274916   0.0530821904592715   0.0000000000000000
  0.1410625235604109   0.0526380756497570   0.0000000000000000
  0.1370659530359299   0.0521848322503466   0.0000000000000000
  0.1331567814638518   0.0517231967360234   0.0000000000000000
  0.1293276562313525   0.0512528455259629   0.0000000000000000
  0.1255804504092525   0.0507745502773552   0.0000000000000000
  0.1219131281255899   0.0502885988465475   0.0000000000000000
  0.1183237015509818   0.0497952534010120   0.0000000000000000
  0.1148102318092792   0.0492947513229479   0.0000000000000000
  0.1113720175725520   0.0487874812015910   0.0000000000000000
  0.1080070759532941   0.0482736140267307   0.0000000000000000
  0.1047146335147149   0.0477534816268928   0.0000000000000000
  0.1014927513745349   0.0472272179600503   0.0000000000000000
  0.0983395479756496   0.0466949369878610   0.0000000000000000
  0.0952554508934213   0.0461571322873805   0.0000000000000000
  0.0922363866432952   0.0456135046927440   0.0000000000000000
  0.0892828700951544   0.0450645654218522   0.0000000000000000
  0.0863942718297865   0.0445106297655928   0.0000000000000000
  0.0835678320075330   0.0439515803137779   0.0000000000000000
  0.0808019575920066   0.0433874837688950   0.0000000000000000
  0.0780971710598979   0.0428188278852694   0.0000000000000000
[...]
POINT_DATA 6176
SCALARS continuity float
LOOKUP_TABLE default
-0.0010154149208502468
0.00019346294783002596
0.0002093030362558419
0.0004746492418492362
2.758410802787912e-05
-0.00021540235567093076
-0.00026864879427606193
-0.00037949332834259
-0.0005237289317309974
-0.0006438199630003894
-0.0007593385974283054
-0.0009439501160974737
-0.0010395127145790446
-0.001145051881336434
-0.001226022117160006
-0.0013111244382221618
-0.0014178229827205497
-0.001531095826680764
-0.001626915647099042
-0.0017900746227118346
-0.0018459800848891993
-0.0018940964426820423
-0.0019457039830704974
-0.001970637505368625
-0.002024367751446858
-0.0021118063052208117
-0.0022117149605536558
-0.0022598933974442015
-0.0022733092500531816
-0.002261591968817561
-0.002255003350668498
-0.002256662688342319
-0.0022575806253260894
-0.0022410890321762
-0.002204780057184485
-0.0021828965348980878
-0.0021734157729685925
-0.002165570995865825
-0.002129344880746053
-0.0020893572304987148
-0.0020720459109289002
-0.0020770862863320424
-0.0020929309458745074
-0.0021120873637109
-0.0021279966010912576
-0.0021365586316043745
-0.0021350376973526346
-0.0021369626985702377
-0.0021626908724822723
-0.0022065199351212947
-0.002257739094477252
-0.0023119267332513175
-0.002360662579350743
-0.0023930209534961206
-0.0024094421268552393
-0.0024307223103115353
-0.00245653940423775
-0.002465714482837202
-0.0024424748607857843
-0.002401474637627791
-0.002346537375683124
-0.0022808990389022433
-0.0022147991025624025
-0.002146209834070589
-0.002066703791903636
-0.0019631504259979824
-0.0018363994184412676
-0.00169581233218925
-0.0015443425877134883
-0.0013831830643360728
-0.0012203130951140575
-0.001056703797007966
-0.0008865664571797876
-0.0006832813464455959
-0.00041609702344142706
-8.851199844107872e-05
0.00026562785412876755
0.0006017655170371374
0.0009017618222834021
0.001171022313176024
0.0014578117267691182
0.0018026968616552963
0.002193590822435088
0.0025724200438529805
0.002886889380103655
0.0030632512643634403
0.0034827641818435504
0.0038511883185780946
0.004172801420201041
0.004505527079856617
0.004814239458218846
0.005050463088352345
0.005219083152288245
0.0053573785764511935
0.0054855712616122855
0.0055855429418685265
0.005630333825776029
0.005615883761544195
0.005547664852762638
0.00542673577092981
0.005235709022410922
0.00497193405268242
0.004667076616125131
0.0043522999233983365
0.004029341893876291
0.0036696698971898298
0.0032720165977621844
0.0028682002379284526
0.002479308457069931
0.002087807272249096
0.0016706449508703952
0.0012350379126504832
0.0008257073210203254
0.00045523125392019895
0.00011502794296343669
-0.00019047058525220888
-0.0004406458910685702
-0.0006172118142350949
-0.0007520389456032739
-0.0008977043755438784
-0.001086928307193026
-0.0012817557080108733
-0.001446600087259601
-0.0015763607878913977
-0.0016841480363935853
-0.0017619378419090643
-0.001778974902650053
-0.0017835310114753748
-0.0018397267368817191
-0.0019485729183215373
-0.002082062147014732
-0.00217970614535461
-0.0022479587922206276
-0.002285130385614747
-0.002230799572279182
-0.0020997936453757806
-0.0021710266308225725
-0.00233269505694141
-0.0024075989534533488
-0.0024543212608692283
-0.002467337441181231
-0.0024706282579741324
-0.002498077602303168
-0.0024674941691476228
-0.002233880739947583
-0.0021234951703174303
-0.0022678729355889034
-0.002466728135463683
-0.002632298915327857
-0.0027782941807732472
-0.0028910159005554187
-0.002960292642345594
-0.0029866932589642054
-0.0025812418403063577
-0.002688237975027441
-0.0025135887957398175
-0.002584660578139648
-0.002766203354340546
-0.0029173116221168217
-0.0030478019810158386
-0.003199327849172395
-0.0034566710126328662
-0.0034160446350651047
-0.003603897138126502
-0.00358879794622461
-0.003563914695025246
-0.0036369975196892577
-0.003670747105233582
-0.003682360284278623
-0.00369277054890544
-0.0038422584770879953
-0.004027367460511598
-0.004088672318459594
-0.004038059822920771
-0.004048003166725878
-0.0040672648447234805
-0.004274534614292334
-0.004389530979630782
-0.00419495308724772
-0.004561908004388215
-0.004281088117026928
-0.004835647137354173
-0.00450857045065128
-0.005300642978720879
-0.004930513450642179
-0.005807785931686357
-0.005295322281229378
-0.006292806807130855
-0.005623799907086539
-0.006791320419130902
-0.0056397846635041085
-0.006003008542338588
-0.006097405564670041
-0.00607685920691029
-0.006121623212629668
-0.006203936249487358
-0.006290659824686655
-0.006273753664814985
-0.006375729259391268
-0.006369034295340487
-0.0062008399043750155
-0.005773199814401877
-0.005035153009653381
-0.004403593956488578
-0.0027572946052559534
-0.0008807581734172904
0.0010079485562735353
0.0026094491227880525
0.0044648342263240316
0.0063256712451214715
0.008835325112864074
0.01037647995467788
0.011611740720053254
0.012963822765649984
0.014140380655910523
0.014855645115512864
0.015405527073971002
0.014723407554795401
0.016157679883771748
0.015864884776620403
0.015234886734782111
0.01444260352879723
0.013451668551796542
0.01229883850704983
0.011218706671045376
0.010045219772173458
0.008925939948261984
0.007841974033242022
0.007051164797806955
0.006008257476216889
0.005393350288757809
0.004415707361948864
0.0033108976166186387
0.0035787204687253004
0.002102783180022987
0.0023029398136502344
0.001000584953557337
0.0011229470147387903
4.239972805257931e-05
0.00017318842403435693
-0.0007015233923654975
-0.0006075655749209606
-0.0012308567067771184
-0.0008589824296890427
-0.001583997902022823
-0.001273516278170112
-0.0018320547352369152
-0.0015384673955429749
-0.0017893733661188068
-0.001786798476156476
-0.0014746052702263558
-0.0016687706238220248
-0.001121684745469057
-0.0012268420438678411
-0.001041250187676676
-0.001004587708182688
-0.0007433774490448238
-0.0006871161658088411
-0.0005360639741231797
-0.0007359368465436793
-0.0006188047322264489
-0.0007516856384460741
-0.0007219262259895478
-0.0007010977446668325
-0.0004965503547555557
-0.0002129281683774123
-9.882945958303076e-05
3.111989175631465e-05
0.00043681206434334155
0.0005109957454450677
0.0004973305127725121
0.0008884045393800134
0.001068963124117789
0.0011503430334609897
0.0013232543093096587
0.0013142639496838365
0.0011184077875953644
0.0011612295975231021
0.0014331405087056703
0.0017879167551751423
0.0020320713747280904
0.002171971676483572
0.002291341255860329
0.00238544414415539
0.002507392888627207
0.002596068014188043
0.002475132301264914
0.002332058838835385
0.002231448593873306
0.0024229122864498315
0.002640479831658765
0.002772053808677028
0.002869184103719708
0.0029341995372515464
0.0029225283477205327
0.002853519403336874
0.002754784962532232
0.002721281271621419
0.0027267341875493634
0.0027056982672160608
0.002669274275711658
0.0026184721019656644
0.002554494361644148
0.0024781421514460046
0.0023924899259874163
0.00230050605922036
0.0021933915525358086
0.002067892543749368
0.001936907653249997
0.001810329552601408
0.0016823742537366419
0.0015344708924055466
0.0013599445157162558
0.001172505127528179
0.0009758434438582162
0.0007494568808652758
0.00048802164884839124
0.0002031764893221189
-7.654974306441423e-05
-0.00034284815545800414
-0.0005927458363763672
-0.0008313010664520621
-0.0010432175155863192
-0.001225507655269577
-0.0013813998320649362
-0.001487989186843299
-0.001512195366209597
-0.0014455096725218013
-0.0012929588785069127
-0.0010725407953148178
-0.0007910359433632248
-0.00043816015598208266
6.997441756277515e-07
0.0005276183526607187
0.0011205595669409635
0.0017495554249235348
0.002427545601467538
0.0032500997222554544
0.0041511669280950006
0.004449499702224165
0.004820693867160527
0.005266434937712665
0.005695191759409741
0.006045154910491039
0.00632868472631464
0.006599974101456518
0.006892136197491011
0.0071916666087978465
0.007466855935539112
0.007650617807002737
0.007707573072593472
0.0076823807203694845
0.007653326338074621
0.007628112468666877
0.007571710317721305
0.0074780042755630115
0.007369566893158669
0.007257300412202695
0.007107176071373501
0.006919410362727428
0.006742251738320101
0.006631082266466042
0.006567251394936032
0.006507229017824952
0.006412494849739089
0.006257834768546948
0.006040109512240653
0.005775387421664384
0.005547632602580605
0.005390267798706442
0.005243409099013211
0.005045255317504555
0.004823876311541206
0.004603268700125401
0.004370134575097648
0.004115098156632134
0.0038478406143688765
0.00361951372119551
0.0034690346679488184
0.003373169188925887
0.0032641696693750627
0.003123535246497282
0.002981496404426692
0.0028554878880651933
0.0027393982273587855
0.0026314514760866392
0.002550429332547318
0.0025170931380323253
0.0025386295220823324
0.002573105104333193
0.002598718370915572
0.0025929018804892166
0.002575078107997671
0.0025928310731410773
0.002643104931083424
0.0027292434374482427
0.002834176950141838
0.0029341529544795655
0.0029982795760639396
0.0030766074576557274
0.0031385472222981037
0.0031894355438880527
0.0032390958696304315
0.003284216338167139
0.0033201831780634494
0.0032846128788410283
0.0033704890781905195
0.0034001695865895306
0.0034283768491418275
0.0033104453340906895
0.00315206324146402
0.002992375194111432
0.002805539653274307
0.002641010908462776
0.0025465692030963404
0.0024381876048411824
0.002317128731590373
0.002145934934452864
0.0017777646058016786
0.001501913554225083
0.0011006434030787747
0.0009902378436410471
0.0018450362047730817
0.0013613474470558226
0.000762173387965396
-0.0007113260041708765
0.00019664962744756403
0.0020944108139518214
0.001990148444424973
0.0014751829383885414
0.0009100508884693002
0.0037098754557659897
0.0005675001142479517
-0.007000024813874189
9.53941910855258e-05
-0.0006944845065227467
-0.00015095265573583096
-0.008871310557656943
-0.00027142066700406957
0.003247579579448971
-0.0002880218350743174
-0.009451402852759722
-0.00034631237309533017
-0.006682514976501856
-0.0005203599006255927
-0.009904277427327057
-0.0006472423898210879
0.002807686400127111
-0.0008127993517696167
-0.010160444947791078
-0.0009559986417106844
0.004625776465512365
-0.0010737100672151487
-0.01041037144648969
-0.0011727373718165605
0.0024260483217674487
-0.0012364996079341133
-0.009553018513735564
-0.0012972487272882422
-0.007209877778558341
-0.0014021287464273692
-0.009915780701693851
-0.0015268524859528352
0.0020262089003375942
-0.0016780419799092637
-0.008829996650294585
-0.0017886852705635528
-0.0025648416627994676
-0.001859855871380583
-0.00936538191590441
-0.0019107082290665018
0.0016131242332259063
-0.0019532537953610533
-0.008550608343615717
-0.001972892596117697
-0.007363773878549322
-0.0020691457411626058
-0.008610620397920115
-0.002153014486325564
0.0011555741742414933
-0.0022713806411916435
-0.008207406770228312
-0.0022826746875775996
0.004236299628431011
-0.002288900371034279
-0.008664719038569996
-0.0022834669075754385
0.0007628191980624906
-0.002286181558824643
-0.008006396685515465
-0.002294064454551933
-0.007160896626517375
-0.0022969771330307773
-0.008035273773398221
-0.0022694222473773665
0.00041347096288065095
-0.002232114397522842
-0.007581061191949435
-0.002218572411637045
-0.0017136892916776506
-0.002215946308451305
-0.007478068574060537
-0.002203181392614685
8.555911051438163e-05
-0.0021704479950741644
-0.00706231274687108
-0.0021359033676853654
-0.006932267271258724
-0.0021262609179516995
-0.0069689868738611865
-0.0021317389652566196
-0.0001905165638163192
-0.0021394376312258157
-0.006553838821209039
-0.0021532340747335466
0.003982487043659674
-0.0021703248159902554
-0.006407982580414528
-0.0021761888401347555
-0.00033830864753601147
-0.0021803367392015855
-0.006012543254816987
-0.002187973724520476
-0.006615414877625848
-0.0022166540596556734
-0.005852013229419302
-0.002259564729460967
-0.0004815702540351891
-0.0023083870704499374
-0.006037498418092266
-0.0023560150612630952
-0.002554484189859256
-0.002400519639479901
-0.005347675562245315
-0.0024294139048499737
-0.0005478990621731103
-0.002455819521608207
-0.005779681977616163
-0.002485109418130054
-0.00701249643656833
-0.0025114889078194673
-0.005150530595374804
-0.00251269070675174
-0.0007826162266031502
-0.0024850240216378657
-0.005281725603714854
-0.002438017654972047
0.003533614263434669
-0.0023791051108598524
-0.0051978953071988195
-0.0023163520430652725
-0.0010020684099761852
-0.002253191142372853
-0.005246842236064381
-0.002190533481866916
-0.007054317412643475
-0.0021041929839800675
-0.005237977921920611
-0.0019901597995098243
-0.0012480802121783692
-0.0018592168024901524
-0.005309565739069538
-0.0017129591902555416
-0.0045419790645760015
-0.0015608483390381089
-0.00518034962317325
-0.0013945733551050494
-0.0013964493961073317
-0.0012295070660184961
-0.004970754825596686
-0.001068747811794109
-0.00696575788126777
-0.0009003330016646844
-0.00469840507827111
-0.0006895078832207279
-0.0015417045393104963
-0.0004048204912344318
-0.0046743906482451855
-6.006166430757155e-05
0.002959477875147531
0.00029534276313159696
-0.0041110105554958845
0.0006271025066315242
-0.00165588569826767
0.0009168861784107992
-0.004483269490019364
0.0011812377544623985
-0.006688540766854481
0.0014805979831012065
-0.004092127135875941
0.0018410731599141858
-0.0016275945281558966
0.0022417459468309655
-0.004582163372220681
0.0026147970608205373
-0.0022369159378146665
0.002911479010246069
-0.00478780107047905
0.00308761485361339
-0.0016103834329940817
0.0034179680043535774
-0.004232012947967904
0.0037944277946734915
-0.0068174177305219885
0.004097418110810665
-0.0040032481348631
0.004419233660188186
-0.0016970628800239693
0.004737384921020452
-0.0038346756414400236
0.004987686268198878
0.002372217295740465
0.005167093406888086
-0.003554975518176968
0.00530442668458427
-0.0017018269896657613
0.005425556539168911
-0.003235950870575224
0.005524398864705651
-0.007216780871064656
0.00557316168826517
-0.0031125639743039145
0.005561150209133376
-0.0019659263669010853
0.005488030637288866
-0.0027826573477113823
0.005368451192444788
-0.001806078489661792
0.005187243907392715
-0.0027581805561493204
0.004932382197688738
-0.0021247531162653195
0.004626255946108126
-0.003048632005276789
0.004303244565740325
-0.00644646606485549
0.003973483908860339
-0.003125157727366794
0.003614658968005835
-0.002312363551263644
0.0032152386642584495
-0.0030817033551491157
0.0028009538760945165
0.004180869561864452
0.0023983464920054836
-0.0030814851740262315
0.002002056558309123
-0.002365083903095035
0.0015878559239325255
-0.003079460272728045
0.0011521072534816062
-0.007245972181876953
0.0007279007416927597
-0.0029153248857629803
0.0003450440993009188
-0.002241193725271604
2.8493482268044604e-07
-0.002683748412003413
-0.0003154374875572626
0.0029843869415433436
-0.0005818492950021602
-0.002415158004719047
-0.0007787929701729478
-0.0021988016422090756
-0.0009249204753185281
-0.0021686508436449554
-0.0010786761702615798
-0.006921060295892859
-0.0012586212674844217
-0.0022588584445744414
-0.0014524432456574693
-0.0025160004959678757
-0.0016220346703241053
-0.0022194074089256165
-0.0017577632173940796
0.001849670052704299
-0.0018720236369774484
-0.002274828471252898
-0.0019504774191794
-0.0025146239073975973
-0.0019779413319626314
-0.0024562951071766545
-0.0019974892070595057
-0.006728803492181115
-0.002064551255820033
-0.002452845679138034
-0.002172857304474227
-0.0025969784390952435
-0.002297025164059261
-0.002404453519679243
-0.002391772383715433
-0.0020613043797427203
-0.0024587545360458566
-0.0023507375907618386
-0.002499620399772154
-0.0027674743680154005
-0.0024121534344680607
-0.002322851788315638
-0.002319118525364862
-0.00667636811218782
-0.0023625938526991653
-0.0021332884580073513
-0.002478197946676547
-0.0029053520706001294
-0.0025939469625112974
-0.002041008647700349
-0.0026313569693495295
0.001313349491598845
-0.0026534469359049866
-0.0019894500898350875
-0.0026658994129610436
-0.00302441763868867
-0.0026754976323386344
-0.002043597993342491
-0.0025253994514907244
-0.006395991416078318
-0.0024521639606475856
-0.0021715715490381476
-0.002321732314685218
-0.0030928211651350596
-0.002373641717744968
-0.002120629930690641
-0.0026111461485823083
-0.0005086310419795963
-0.002809716477226551
-0.002055908016105832
-0.002945772432632832
-0.0029933979718604242
-0.003090358639413351
-0.0018750458632836484
-0.0030508850821174063
-0.005972101228799589
-0.0030913863978970077
-0.0017643733110407809
-0.0028924198886470737
-0.0030903821545696475
-0.0026439981173947496
-0.0016172837974212464
-0.0024328957386693644
0.0008109208137332614
-0.002491798772180504
-0.0016112775230802488
-0.0028425593573815026
-0.003499162995962652
-0.0030450152376316495
-0.001591213610486606
-0.0031905743203940284
-0.005114943280531764
-0.003408359813196152
-0.0016126894125823156
-0.0035299419201105177
-0.0032926928778473424
-0.003648424248551044
-0.0015183920691811507
-0.0037911568469116684
-0.0016188208805263816
-0.0036175060434785115
-0.001395390582951957
-0.0034048640964715465
-0.0033379285812252402
-0.0035796513762340852
-0.0012653234063546368
-0.0034264720346815266
-0.00605540148766559
-0.003557504711550782
-0.0011038890427511226
-0.0035712445282813318
-0.00349392241104461
-0.003927015765693499
-0.0009025184803499344
-0.004084957601482748
0.000418920813394769
-0.004191769738961041
-0.0007367453462813801
-0.004080783463928714
-0.0037438545119091557
-0.004097347245442323
-0.0005872880206419394
-0.004084591280792008
0.002747327734104201
-0.004162547275893136
-0.0004575576803324718
-0.004159145519841253
-0.003990683764584251
-0.0041049559974166835
-0.00026645244230571254
-0.004206486704027668
-0.0018673122579330606
-0.004183580238200611
-4.22987537004719e-06
-0.0043680032096800265
-0.00407221102914058
-0.00444875754636659
0.00030709287499628107
-0.004827016361668379
-0.006159010319443799
-0.004965926830725036
0.0006474614730367515
-0.005276587153591213
-0.004152094815867926
-0.005393385307437209
0.0010313113552524458
-0.005624100756102117
0.00019491254211476247
-0.005781633309902983
0.0014570585899150745
-0.005979277236672915
-0.004740066754185413
-0.006101015573491118
0.0018817747203921744
-0.006239910975950527
0.00528163593005637
-0.006324022348940482
0.0022805236965124827
-0.0064371118610921626
-0.004703395757263307
-0.0065544960755541835
0.002671768924479615
-0.006997318630204137
-0.0014348066246039214
-0.007244957133488433
0.003083687305137141
-0.007791730727532653
-0.00444004769691627
-0.008204546629127613
0.0035113635173542376
-0.009063621567259145
-0.006094764363177392
-0.009597977653226673
0.003917217709558628
-0.01002575636271319
-0.0042182830548499915
-0.009897811201445122
0.004278882889845332
-0.009056082961809807
-0.000290952030868078
-0.007329750889502673
0.00461478500336452
-0.005651515726964389
-0.004640495412574042
-0.004508448113008929
0.004943608279245667
-0.0022505733471040812
-0.005893634627096925
0.0003070799468096151
0.005242560984260952
0.0027916282792035925
-0.004480533368428224
0.005164741305734462
0.005486529379916156
0.008381101628192038
-0.0032425478874117133
0.010608138889410049
0.005670397172688273
0.012684474702174894
-0.004725650429291369
0.01468989725731202
0.005805800093352357
0.016145610374013634
-0.0056710901802419144
0.016992215255162646
0.0058918756403498265
0.017136062426610376
-0.005342332366458436
0.018160228896630406
0.005910811509447134
0.01791851223870732
-0.000584826198947312
0.01694304800223437
0.005860743304243971
0.015832783067142853
-0.005527961249192994
0.01424762744738844
0.0057601655462658375
0.012823185013455238
-0.005511504069829501
0.011049773016371642
0.005634001216998492
0.009760695949492956
-0.005826674123312965
0.008163069440176998
0.005491887603792106
0.0069092274376327265
-0.0012055812440988395
0.005985580648561228
0.005303937510679717
0.005004093779863712
-0.006240549273056873
0.004144543932595156
0.005047321827973666
0.00324791800736356
-0.005155431751483209
0.0025360114168928778
0.004736807934801204
0.0017618129534990037
-0.0011869465669028046
0.0011943415139114314
0.004417454977834855
0.000604824828504312
-0.0011294837122652773
-2.693072343738789e-05
0.004131042518991191
-0.0004901221486937023