# vtk DataFile Version 1.0
GRUMMP topologically 2D mesh
ASCII

DATASET UNSTRUCTURED_GRID
POINTS 6176 float
  1.0000000000000000   0.0000000000000000   0.0000000000000000
  0.9979736161243241   0.0002872981906159   0.0000000000000000
  0.9959038003591104   0.0005818082753016   0.0000000000000000
  0.9937894604158818   0.0008826109490225   0.0000000000000000
  0.9916311447855282   0.0011889740049165   0.0000000000000000
  0.9894256878168368   0.0015011074645448   0.0000000000000000
  0.9871732566523234   0.0018189104108560   0.0000000000000000
  0.9848739492731372   0.0021423104928037   0.0000000000000000
  0.9825241245750710   0.0024717658271048   0.0000000000000000
  0.9801244133260449   0.0028071825305054   0.0000000000000000
  0.9776732769852096   0.0031487906039340   0.0000000000000000
  0.9751690039483889   0.0034968357351786   0.0000000000000000
  0.9726117072730877   0.0038512643819321   0.0000000000000000
  0.9700001180350898   0.0042121148976419   0.0000000000000000
  0.9673332227148538   0.0045793859121594   0.0000000000000000
  0.9646079236541195   0.0049533708962095   0.0000000000000000
  0.9618249648196705   0.0053338679490647   0.0000000000000000
  0.9589807878895711   0.0057213439443832   0.0000000000000000
  0.9560767311296049   0.0061156062701256   0.0000000000000000
  0.9531120216710255   0.0065167463399167   0.0000000000000000
  0.9500819018783057   0.0069253778138591   0.0000000000000000
  0.9469876484068450   0.0073412143029309   0.0000000000000000
  0.9438286210030068   0.0077641908681895   0.0000000000000000
  0.9406001269296587   0.0081947829660712   0.0000000000000000
  0.9373041277084813   0.0086325757434285   0.0000000000000000
  0.9339368121646437   0.0090779560824189   0.0000000000000000
  0.9304976431076690   0.0095309377793780   0.0000000000000000
  0.9269838874379289   0.0099918267186165   0.0000000000000000
  0.9233965242394278   0.0104604374002928   0.0000000000000000
  0.9197323684717913   0.0109371203977286   0.0000000000000000
  0.9159901296799260   0.0114219111797446   0.0000000000000000
  0.9121662515702946   0.0119150917142392   0.0000000000000000
  0.9082612640703632   0.0124164093968364   0.0000000000000000
  0.9042711890176098   0.0129261849544228   0.0000000000000000
  0.9001985925103467   0.0134439182275261   0.0000000000000000
  0.8960367883853674   0.0139703538547480   0.0000000000000000
  0.8917881131106570   0.0145051006126241   0.0000000000000000
  0.8874465968544013   0.0150488093430172   0.0000000000000000
  0.8830132689405343   0.0156012428338051   0.0000000000000000
  0.8784843643309772   0.0161627200549514   0.0000000000000000
  0.8738585592690924   0.0167332093564690   0.0000000000000000
  0.8691331845657406   0.0173128340473851   0.0000000000000000
  0.8643080629784704   0.0179014022230632   0.0000000000000000
  0.8593790220315882   0.0184992057974382   0.0000000000000000
  0.8543443022105112   0.0191062525475961   0.0000000000000000
  0.8492020742372332   0.0197225542022908   0.0000000000000000
  0.8439504592998461   0.0203481184762133   0.0000000000000000
  0.8385847225217766   0.0209832807547837   0.0000000000000000
  0.8331043690503205   0.0216278714070098   0.0000000000000000
  0.8275075883744546   0.0222818740978654   0.0000000000000000
  0.8217896079901662   0.0229456038551552   0.0000000000000000
  0.8159499389768221   0.0236188617887649   0.0000000000000000
  0.8099850870934132   0.0243017702717010   0.0000000000000000
  0.8038929332928342   0.0249942623102002   0.0000000000000000
  0.7976697970229181   0.0256964297179088   0.0000000000000000
  0.7913134730328051   0.0264081777898121   0.0000000000000000
  0.7848218596203610   0.0271293903098903   0.0000000000000000
  0.7781898173908960   0.0278602762976724   0.0000000000000000
  0.7714169256365310   0.0286005013921829   0.0000000000000000
  0.7644979701754163   0.0293502351726533   0.0000000000000000
  0.7574308659438134   0.0301093068082177   0.0000000000000000
  0.7502135053150701   0.0308775557618342   0.0000000000000000
  0.7428404612557281   0.0316551512399728   0.0000000000000000
  0.7353096164115749   0.0324418730798164   0.0000000000000000
  0.7276172963491144   0.0332375368705936   0.0000000000000000
  0.7197598859172740   0.0340418579688506   0.0000000000000000
  0.7117355290536627   0.0348543282856948   0.0000000000000000
  0.7035389878799579   0.0356747811793425   0.0000000000000000
  0.6951650952820780   0.0365031090698871   0.0000000000000000
  0.6866122709923126   0.0373388258653197   0.0000000000000000
  0.6778754950330185   0.0381817369178559   0.0000000000000000
  0.6689534383202176   0.0390312029136988   0.0000000000000000
  0.6598376964403885   0.0398871771799410   0.0000000000000000
  0.6505290121117546   0.0407486821288951   0.0000000000000000
  0.6410191910005383   0.0416153892989160   0.0000000000000000
  0.6313056496470314   0.0424862165552765   0.0000000000000000
  0.6213823079172336   0.0433602824420315   0.0000000000000000
  0.6112489281649386   0.0442362457646169   0.0000000000000000
  0.6008963123926909   0.0451137308907019   0.0000000000000000
  0.5903211292528141   0.0459917803130241   0.0000000000000000
  0.5795184839365645   0.0468692540951747   0.0000000000000000
  0.5684857150099230   0.0477443424041717   0.0000000000000000
  0.5572148862675538   0.0486154402631608   0.0000000000000000
  0.5457024491672809   0.0494805599680832   0.0000000000000000
  0.5339780836677636   0.0503353194116202   0.0000000000000000
  0.5219860728183490   0.0511813660693644   0.0000000000000000
  0.5101253307512127   0.0519891081313360   0.0000000000000000
  0.4985043971600128   0.0527514649709832   0.0000000000000000
  0.4871181100865982   0.0534694955937708   0.0000000000000000
  0.4759663238182478   0.0541439373921026   0.0000000000000000
  0.4650424897306392   0.0547759224024376   0.0000000000000000
  0.4543414694194311   0.0553665338532900   0.0000000000000000
  0.4438615277983380   0.0559167464857066   0.0000000000000000
  0.4335966445555638   0.0564277439227250   0.0000000000000000
  0.4235422171719039   0.0569005367499369   0.0000000000000000
  0.4136931783754329   0.0573360485787389   0.0000000000000000
  0.4040479201781875   0.0577350333573017   0.0000000000000000
  0.3946007843384192   0.0580984587592611   0.0000000000000000
  0.3853459130056055   0.0584273588583778   0.0000000000000000
  0.3762828394437238   0.0587225582688298   0.0000000000000000
  0.3674052759622001   0.0589850521268143   0.0000000000000000
  0.3587104110044708   0.0592156767487264   0.0000000000000000
  0.3501952433465900   0.0594152538281565   0.0000000000000000
  0.3418548081050912   0.0595846279097528   0.0000000000000000
  0.3336858663230149   0.0597246577421592   0.0000000000000000
  0.3256868701986138   0.0598362486465025   0.0000000000000000
  0.3178507769372301   0.0599203474438374   0.0000000000000000
  0.3101776523444911   0.0599777679649948   0.0000000000000000
  0.3026620994593082   0.0600092896252224   0.0000000000000000
  0.2953022098091474   0.0600156089816429   0.0000000000000000
  0.2880942515540157   0.0599974067416477   0.0000000000000000
  0.2810344582773878   0.0599553507162620   0.0000000000000000
  0.2741224198462300   0.0598902308958287   0.0000000000000000
  0.2673508102792782   0.0598027829062179   0.0000000000000000
  0.2607208372897423   0.0596938009430880   0.0000000000000000
  0.2542268737219818   0.0595639532054747   0.0000000000000000
  0.2478699323930078   0.0594139942796022   0.0000000000000000
  0.2416426526986943   0.0592444560641495   0.0000000000000000
  0.2355443386744786   0.0590559928562533   0.0000000000000000
  0.2295742285057687   0.0588492600763349   0.0000000000000000
  0.2237267309732288   0.0586247739586633   0.0000000000000000
  0.2180011540540604   0.0583832555000465   0.0000000000000000
  0.2123936096745636   0.0581252700988444   0.0000000000000000
  0.2069018249031851   0.0578514118247249   0.0000000000000000
  0.2015265925874962   0.0575624139311738   0.0000000000000000
  0.1962639217171782   0.0572587327640815   0.0000000000000000
  0.1911098627978642   0.0569407701058159   0.0000000000000000
  0.1860635373512509   0.0566090833477142   0.0000000000000000
  0.1811225555455632   0.0562641183158228   0.0000000000000000
  0.1762831066659017   0.0559062017034564   0.0000000000000000
  0.1715472965099615   0.0555361405439852   0.0000000000000000
  0.1669099315072494   0.0551541804881659   0.0000000000000000
  0.1623702175183220   0.0547608759938091   0.0000000000000000
  0.1579259317985442   0.0543566416724963   0.0000000000000000
  0.1535748664842349   0.0539418626674859   0.0000000000000000
  0.1493147619729656   0.0535168899310313   0.0000000000000000
  0.1451447283274916   0.0530821904592715   0.0000000000000000
  0.1410625235604109   0.0526380756497570   0.0000000000000000
  0.1370659530359299   0.0521848322503466   0.0000000000000000
  0.1331567814638518   0.0517231967360234   0.0000000000000000
  0.1293276562313525   0.0512528455259629   0.0000000000000000
  0.1255804504092525   0.0507745502773552   0.0000000000000000
  0.1219131281255899   0.0502885988465475   0.0000000000000000
  0.1183237015509818   0.0497952534010120   0.0000000000000000
  0.1148102318092792   0.0492947513229479   0.0000000000000000
  0.1113720175725520   0.0487874812015910   0.0000000000000000
  0.1080070759532941   0.0482736140267307   0.0000000000000000
  0.1047146335147149   0.0477534816268928   0.0000000000000000
  0.1014927513745349   0.0472272179600503   0.0000000000000000
  0.0983395479756496   0.0466949369878610   0.0000000000000000
  0.0952554508934213   0.0461571322873805   0.0000000000000000
  0.0922363866432952   0.0456135046927440   0.0000000000000000
  0.0892828700951544   0.0450645654218522   0.0000000000000000
  0.0863942718297865   0.0445106297655928   0.0000000000000000
  0.0835678320075330   0.0439515803137779   0.0000000000000000
  0.0808019575920066   0.0433874837688950   0.0000000000000000
  0.0780971710598979   0.0428188278852694   0.0000000000000000
[...]
POINT_DATA 6176
SCALARS continuity float
LOOKUP_TABLE default
0.007205750045303497
0.007208155019131907
0.007270481825916081
0.007274474026414513
0.007263881687045439
0.007260081027337846
0.007257367781018827
0.0072573836956399095
0.007256376580217743
0.007254708826712722
0.007251619496452024
0.0072498880445369795
0.007245960853531351
0.007241718040569791
0.007237224446960623
0.007232608863165763
0.007227098441572808
0.007222109364488443
0.007217128539585024
0.007213254467930008
0.007207984856508349
0.007202520391239436
0.007197169413230973
0.0071919762763376785
0.007186886650075217
0.0071815174687291225
0.007176229352714579
0.007170763061032541
0.007165412605036489
0.007160268822226882
0.007155338129436197
0.007150720910318968
0.007146425796243601
0.007142034466794621
0.007137368946757718
0.007132566738397488
0.007127762662915972
0.007123140807176776
0.007118499351610661
0.007113832097164621
0.007109113917422516
0.007104285403760536
0.007099192987308932
0.007093834032600902
0.007088520684898557
0.007083420762964017
0.007078554678600784
0.007074028171949901
0.007069758313496353
0.007065630932147063
0.007061212404507311
0.0070562162141143735
0.007050598086555282
0.0070450995892072195
0.007040260083190196
0.007036308121164835
0.007033163772652602
0.007030560491060859
0.00702810839183893
0.007025356843737281
0.007022098994234846
0.007018823362518869
0.007016307348470594
0.0070146897066642455
0.007013506757857253
0.007012598056984987
0.007011962209134031
0.007011857133868761
0.007012181634149846
0.007012735136284725
0.0070131943682773
0.0070140969582554065
0.007015722857731793
0.007018230169430863
0.007021421938326157
0.00702514887298616
0.007029515850144105
0.007034396360094808
0.007039809814454103
0.0070460233670987795
0.007052732179945513
0.007059380470408487
0.007066012147084793
0.007073924169251223
0.007083865595625655
0.0070907899591669855
0.007087846266242781
0.007089186932393043
0.007093639626259635
0.007098634028869775
0.0071024907135342555
0.007104920763210593
0.007106156231762715
0.007106762348999454
0.007106866655257875
0.007106805570000947
0.007107022765235645
0.0071084319014105505
0.007110586083450181
0.007111908780289083
0.007111549202569125
0.0071101323708389775
0.007108937709017754
0.007108349560794853
0.007108620797541257
0.0071105555471279456
0.007115177653018328
0.007122726974021913
0.007131186169199618
0.007138356614151688
0.007144438421118673
0.007151526023794533
0.007160583839079091
0.007171533775180692
0.007184732924293908
0.007201195534893026
0.00722186708262205
0.007245455877459732
0.007268183884670573
0.007287391901006091
0.0073043430831288055
0.007321450630220963
0.007339404736567874
0.007358431761141167
0.007378388852123573
0.00739957224760643
0.007423095670648212
0.0074496721647209635
0.0074749127184421055
0.007493839343543298
0.007507353529214096
0.0075195620501017305
0.0075323714838477955
0.007545244265026212
0.007557149484480514
0.007571565287292054
0.007591703345903168
0.007602623517767712
0.0076031097301832145
0.007603912097008437
0.007603946079136935
0.00760178354525991
0.007598225444880728
0.007591034493198905
0.0075777314799466075
0.007572180340369165
0.007579680503608532
0.007572913437995738
0.00754886996451333
0.007522214488106773
0.007493117298396658
0.00746028798272938
0.007423123443296183
0.0073804638918331745
0.007373149407363308
0.00733643397988194
0.007299438043147193
0.007264719930707872
0.007214221115716584
0.007154845407477136
0.0070930697530666355
0.00702277471739278
0.006949837394229687
0.006915946020726014
0.006856417487706877
0.0067830806323340865
0.0066955634521122555
0.0065955819054377305
0.0064830433560918
0.0063735121171943875
0.006260709504976419
0.006122952039240649
0.006011482866464016
0.0058860904222131066
0.005748016425262196
0.005592393264818447
0.005427554364843307
0.005242477378722809
0.005107029271925714
0.004862365722563438
0.004701289233210021
0.004422912729666244
0.004240571253187963
0.003927567870937358
0.0037247352708134514
0.003391102444762154
0.0031651038423074268
0.0027962286223007678
0.002543711369994211
0.0021343598947316236
0.0018603859984420493
0.0014027145209946296
0.000993706454205804
0.0005512671467674672
7.675988090011171e-05
-0.0004340240664720861
-0.0009596553380457146
-0.0015276099889183733
-0.002129728102557511
-0.002786765744048481
-0.0034747398402656298
-0.004237837750371499
-0.0050574381036673265
-0.005921755189221639
-0.0066319565033528035
-0.0072905044619530615
-0.00811503491182343
-0.008882692299952661
-0.00951032873376733
-0.010018749627954647
-0.0104133311488205
-0.010526929637344296
-0.01043905030003401
-0.010191717442075168
-0.009789752879251396
-0.009207695924179603
-0.00846900664686252
-0.007803982770463377
-0.007066637451280334
-0.006156471745401049
-0.005215080314101198
-0.00427546855062455
-0.0033972980829246164
-0.0025986567627180163
-0.001838896195093274
-0.0011379159485312208
-0.0004985503501815885
0.0001089938816499706
0.0006666896394166235
0.001171286126402079
0.0016864918753626227
0.002142189986132881
0.0026744688612483193
0.002980573978442408
0.0034049390174603106
0.0036664986082295186
0.004035039445241489
0.004269936822249765
0.004606925894569362
0.004815280759577565
0.005112430655236574
0.005287384028557759
0.005555427946661632
0.0056993421469056825
0.0059389526530076835
0.006065937739165349
0.006290903217178205
0.006410236815024461
0.006588457703265287
0.006750271609824357
0.006899419364647415
0.007011491161333321
0.0071570253765504835
0.007278538472166195
0.0073864403820216055
0.007492424716394883
0.007577983622821745
0.007650392610780935
0.007709052845266266
0.007764060330068593
0.0077866779367563605
0.007856877256037635
0.007915655900176633
0.007963241209295176
0.008014909758524369
0.008063676278436299
0.008098788563890087
0.008128004470312868
0.008158999380344588
0.00818277581227376
0.008184086813937765
0.008217306149276597
0.008240955517650214
0.008257452069582677
0.008272177544743237
0.008274210764636898
0.008266348026594282
0.008265769079008799
0.008272767160974642
0.008276697924457321
0.008275275791896358
0.008270887341314362
0.008263348420926886
0.008253182379088722
0.008243101348051975
0.008230465052758115
0.008207495397045567
0.00817620237272754
0.008145815188217404
0.008124326077566206
0.008106465011064625
0.008087598003256435
0.008067429638857213
0.008045743723455477
0.008021495726164105
0.007991119215335548
0.00795377638537241
0.007915686808551469
0.007881966850325904
0.007852431978076562
0.007825113271168407
0.007798565604889522
0.007772380432564058
0.007745443741189671
0.00771503746265231
0.007681100475114565
0.007646524328425087
0.007615092764850799
0.0075879098292056385
0.007564145837471142
0.0075432815946929205
0.007525005236631486
0.007509298698527207
0.0074960181024268146
0.0074837596283665615
0.00747092059557605
0.007458056312653824
0.007447581463228961
0.007441247785383898
0.007438278213646612
0.007437162836860294
0.007437098738839114
0.007437246138236258
0.007436354751235972
0.007434268784980556
0.007431882781388432
0.007430274671701643
0.007429402821238557
0.0074287394919334065
0.007428116333870366
0.0074271263757511195
0.007425479496750727
0.0074227996459489
0.0074188110353483674
0.007413410024861114
0.007407377759163749
0.007402018476091733
0.007399400207480522
0.007400517718406875
0.007392381957173117
0.00738131880909151
0.007372373070106358
0.007364537825989942
0.0073563048920686006
0.00734773576187951
0.007339844627452626
0.007333233527293362
0.007327736364375867
0.007323314169271446
0.0073199035874540455
0.007317192656752536
0.007315033924196309
0.007313429353951432
0.007312220574534513
0.007310888594295963
0.007309934922008078
0.007309473462419787
0.007309788207990364
0.007310673371320383
0.007312008775348029
0.0073138450131558
0.00731641191865782
0.007319408914094048
0.007322409348283122
0.0073253023614408275
0.007328500379539765
0.007332327792338403
0.007336854801142698
0.007342153177331466
0.0073484679506194165
0.00735516291361094
0.0073615131265204695
0.007367579134581173
0.007373654959218933
0.007379885410393133
0.00738626014556544
0.007392663521183544
0.007399185289849226
0.007405935826116419
0.007412902734719917
0.007419831281252741
0.00742631738125481
0.00743249625322878
0.007438599833971166
0.007444842238520265
0.00745129005864797
0.007457863575206112
0.0074646175238313895
0.007471633365241945
0.007478699080310227
0.007485971803789463
0.007493225265463769
0.007500449258905141
0.007507559857522187
0.007514614118266727
0.007521630271375049
0.007528743193348325
0.00753540393974139
0.0075416931649522545
0.007547843496370226
0.007553557460459276
0.0075588630692908915
0.007563690649922491
0.007567929682133503
0.007571464086722402
0.007573774110725025
0.007576766273395123
0.007579324504129923
0.007581638939171507
0.007582735163613541
0.007583898427094552
0.007584821557684227
0.007585070005928291
0.007583942137519303
0.007583594547248603
0.007581294144500169
0.007578396439377727
0.007574004468560237
0.007571884628278361
0.007566996248830153
0.007558696635209675
0.007563714603963353
0.007528881739566129
0.007212670762537192
0.007402905516646462
0.007417200440729275
0.007423495880207802
0.007419025467120789
0.007391922864167156
0.007321763131556383
0.007252004244486822
0.006370513001426885
0.007263248224440568
-0.008223602596293714
0.007263046265533064
0.0025846064337331173
0.007259602009838737
-0.00767575444162838
0.00725751693826955
0.0063444974203408265
0.0072517388358198775
-0.006881967795440447
0.007253113358263998
-0.0035475910720016855
0.00725164282532248
-0.006041318025563407
0.007249072953108403
0.006319059140353986
0.007248700999545091
-0.005118652683214212
0.007243529261618931
0.00496683361773821
0.0072399536277718245
-0.004676785992978619
0.007235929125079923
0.006295243673894162
0.007230377983074016
-0.003763916053596501
0.007225576874167543
-0.002953104046663641
0.007221175826348463
-0.003437778146627972
0.007215508668151068
0.006269696682656809
0.007212464779351026
-0.002580925381436411
0.007205003773609805
0.003140003606093574
0.007199842489401278
-0.0023559961015674315
0.0071944776234227755
0.006241347189707098
0.007189196561472236
-0.0015567181767620708
0.007182630575017143
-0.0024645907434688056
0.007177431398815203
-0.0013835836173891607
0.0071715170647918105
0.006213646002742982
0.00716786988307888
-0.0006577504744344952
0.0071609616317246175
0.004906420935954075
0.00715567577842321
-0.0005800650880306448
0.007150569258706168
0.006186602952785047
0.007145749644634468
0.00012570591812012245
0.0071412457263295296
-0.001894748118707717
0.00713692754821268
0.00019212603449176216
0.007132499922894585
0.00616194331415645
0.0071277921189752055
0.000675109935431481
0.007122861119337449
0.00276082009718315
0.007118052371586457
0.0009245260337012685
0.0071132565719305985
0.006139687964747735
0.007108641426085903
0.001327090827207873
0.007103929711296957
-0.0014367864104224107
0.007099218798909728
0.0015320240416901235
0.007094340281499031
0.006117477512681806
0.0070891810798436395
0.0019053824996215756
0.0070838459136198795
0.004839106191646294
0.007078564783011531
0.0020764312677865326
0.007073472977034258
0.006095152835464823
0.007068626854903371
0.0024299635377049928
0.007064139271821898
-0.0010747724728968051
0.007059912254623635
0.0025763084241711832
0.0070557359305201605
0.006079479742538624
0.00705117993043277
0.002667755717546382
0.0070458967599880415
0.0030724043379405175
0.007040312168537517
0.0032802926183526505
0.007034852015030817
0.006064826086560571
0.007030071686226911
0.0030878166010027295
0.007026218693415199
-0.0005412619175192635
0.0070231376113402515
0.0036748585776217213
0.007020501116062383
0.006041950822111276
0.007017905670781662
0.003698865405854198
0.007014872060985228
0.0047735913198528575
0.0070114600415607355
0.003785319093367461
0.007008256067084026
0.006016491883146377
0.007005809423468909
0.004039342958664922
0.00700413250498674
-0.00020906769156942963
0.007002890709503635
0.004110196770376624
0.007001816087595048
0.005986217941615788
0.007001156157225858
0.004329608928081211
0.007000970155211429
0.003108726813191943
0.0070011625810866345
0.004381274350125267
0.007001383142223431
0.00595531336506672
0.007001638975383461
0.0046075821161221
0.007002386410105409
0.00011434822205364046
0.007003965160010247
0.004606365280503374
0.0070063492159144255
0.005922732319077298
0.007009319652433407
0.004798726825144499
0.007012868434372271
0.004706539283327776
0.007016927498886233
0.005135465886734154
0.007021382174638566
0.005887718199725684
0.007026451545723616
0.005052628692815086
0.00703228923375492
0.0003804486832673537
0.007038516590234967
0.00532976108815533
0.0070445002679075264
0.005854924098046033
0.007050678214432327
0.00515199081450314
0.007058227607602844
0.0031845321951353787
0.007067996471481858
0.005137596657719699
0.007066745874876833
0.00593342158948889
0.007067212079467106
0.005461625580116138
0.0070668948698834385
0.0007093192839396852
0.007070145970947866
0.005432754178946273
0.007074142935680605
0.005825160664408823
0.007077130107928813
0.005684436848772026
0.007078510750703884
0.0046362307558041466
0.0070786447322940095
0.005896838450645504
0.007078005016360565
0.005820671680836901
0.007076824425038332
0.006018703206099952
0.0070752704584906645
0.0009719614960448745
0.007073987065029812
0.0059532988546522475
0.007073532202435628
0.005750604746052284
0.007073869286355557
0.006084894098220947
0.007073642150604462
0.0026792634311839517
0.007071655118665479
0.006028126026316495
0.007068381941356136
0.005787522099371163
0.0070650611530973665
0.0059726773865316244
0.0070623332406166165
0.0010257174406104255
0.007060284044100039
0.006069421042817471
0.007059685445924986
0.005742830271168701
0.00706153959459879
0.006197149554489324
0.00706606016861168
-0.005593599874481053
0.007071955925706014
0.006199044985775496
0.007076835243021738
0.005686571084192754
0.007080278201636446
0.006330578267421033
0.007083943238718265
0.0015293178497247351
0.007089504152129879
0.006420848485680436
0.00709703317682526
0.005623250342089013
0.007106706446041084
0.0064913930985957356
0.007119328616464746
0.005681658489547049
0.007135677288834036
0.006455596780073928
0.00715511325380606
0.005751572625675576
0.007174387801964394
0.006400178963006175
0.00719055102063358
0.001710393087599025
0.007203096105355008
0.006440822504524133
0.00721526896548165
0.005564265595018158
0.0072282096201513515
0.00659990035329168
0.007242222892880505
0.004564057361747705
0.007257065296619849
0.006483029294518234
0.007273014250074093
0.005440068904950288
0.007290908335491149
0.006542627219671778
0.0073118517174821
0.0019194287797061117
0.0073320657323022185
0.006604037717160572
0.00734563120232514
0.005622890182933575
0.007352768583041886
0.006650989299032275
0.0073575446026570785
0.003212132063869793
0.007362683350177138
0.006686553437888467
0.0073678602191890345
0.005580827546976125
0.0073725394962714155
0.00671682830417989
0.007381486551382399
0.0018814368060336522
0.007398306168941784
0.00667329451834494
0.007403617273213542
0.005513180233968942
0.0073973335653808115
0.006711277137234632
0.007388419242128939
0.004494530866134559
0.007379107297744692
0.006790497619128555
0.007366059306271589
0.005419640766240759
0.007349350663063154
0.006723967499527392
0.007329740355663816
0.002259098328297372
0.007367017290544075
0.0067424113846252355
0.007312943908287032
0.005282025947985715
0.0072967763635318275
0.006761460023294026
0.007324961638194375
0.0026181793405028095
0.007298211622682138
0.006778519147874094
0.007258862256613828
0.005140661756818923
0.0072123316290200155
0.006794436342057515
0.0071540067314136615
0.0027803335241624845
0.007101150320559856
0.006804952188508084
0.007155757302937286
0.005288820114062506
0.0070357547284356
0.00680729449459439
0.00702365250849024
0.004419084592671605
0.00696939730695365
0.006798480253812971
0.006959614882916409
0.005085837838561036
0.0069311717810165464
0.006795699318522207
0.006850479494011587
-0.006495489414873054
0.006746097866063121
0.00679709702556963
0.006628419606079669
0.005164310858830087
0.006651072285493582
0.006798995592521067
0.006469576125190764
0.003360997311174302
0.006441837972283155
0.006801502796596577
0.006403613429578683
0.005134552484459789
0.006324146250242144
0.006804639163727112
0.006223193457498476
0.002875841176680519
0.006109059898179571
0.006808966384418883
0.005991337732488534
0.00518019702587404
0.005767602807758498
0.006813089455135631
0.0058219969871754354
0.004341728229075274
0.005577335219080186
0.006815827764595063
0.0055784821664673495
0.005142859672045079
0.005309838540656361
0.0068132772104029056
0.005281372971736547
0.004103245935366381
0.004986169642998768
0.006807772970598864
0.004962967247785318
0.0050150278520051375
0.004559233961771872
0.006803732688237154
0.004581672754405258
0.0025978728088929272
0.0041504618282806075
0.0068016979573769015
0.004145367872507105
0.004764351219727957
0.0036848181383619225
0.006801875896724582
0.0036439978257292796
0.0029870290051259418
0.0031607375611703192
0.00680451812387106
0.0031036582718376293
0.004761550822971357
0.0025891564360172154
0.006808955978311759
0.002504314210488017
0.004385880716248257
0.001957149119331039
0.006814596862015303
0.0017414021573555585
0.004405709563235926
0.0012896262257662133
0.006821923565852058
0.0009732149262309063
-0.006244573561262591
0.0005809167057248062
0.006828668419387871
0.00012412995677888366
0.004401334102744462
-0.00033282992137175367
0.006834183022769174
-0.0008716585505747751
0.003287539483272735
-0.0013898259402469503
0.006839047047008697
-0.001992866687629153
0.004508800948520718
-0.002587254535672957
0.006845168440107086
-0.0032875449231385173
0.0027999362687007538
-0.004004370354453803
0.006853071943776533
-0.004859120592598515
0.0047834005878783625
-0.0057415570194674715
0.0068627508830622665
-0.006597955212218134
0.004248988318145308
-0.0071994367009521176
0.006873452875765564
-0.008087503418781866
0.004497136279900271
-0.008824041702846149
0.0068843543309993465
-0.009443591281920554
0.0029148927921907315
-0.009967196736838912
0.006895397684838208
-0.010357670637569519
0.004524312721761405
-0.010745195953563968
0.006905926940735379
-0.010741326078399397
0.0036785180011603396
-0.010701286212114433
0.0069152648804451785
-0.010514015997415306
0.004619761358027512
-0.01019135877203449
0.006922975426789705
-0.009733985612486529
0.0029652431569298413
-0.009131343141383304
0.006930167323319423
-0.008324429064834837
0.004130210140872528
-0.0074867142317218876
0.006937656966169283
-0.006805333584220039
0.0042035732683421345
-0.005849499410732426
0.006945374042519405
-0.004869252211851839
0.003777416763012843
-0.003909132807587051
0.0069528506722097505
-0.0030926225602360847
0.003185216054268564
-0.002296002368942965
0.006959605043947556
-0.0016106262120692079
0.003538612778960483
-0.0009462874305300587
0.006965463617054442
-0.0003507915540570909
0.003379317135473499
0.00018359315371064153
0.0069703934791994155
0.0008750965725234664
0.003491930654964269
0.0012047896881778534
0.0069738875515771275
0.0018451435741025943
0.0036572193071018086
0.002029165140946371
0.006975877046787394
0.0026716162842070567
0.007044734903134832
0.002782439494967795
0.006976823157567506
0.0033629326536472907
0.004107730381516355
0.003429237000093548
0.006977995405135164
0.00397078595711756
0.0034248526474603166
0.004012779106841274
0.00698217696402045
0.004520315752002099
0.003576727858921879
0.004531501153580791
0.006974208634667152
0.004996123996003459
0.0040375662338543615
0.004983877843970126
0.006988060065272893
0.005417466648430503
0.0026361935916997667
0.005386365339725017
0.006983252704572459
0.005787414500401592
0.0032476433687100782
0.005748507983997721
0.0069790649536068455
0.006134354435285652
0.0036071715700625832
0.00614424152882318
0.006975719345015286
0.006429151153731049
0.007049685822855937
0.006448765840749963
0.006972294449925892
0.006627790402158131
0.004111709121760827
0.006693977012095983
0.006968408969693324
0.006864234028062512
0.0027307046500167327
0.006984584391400751
0.006964479816245671