# vtk DataFile Version 1.0
GRUMMP topologically 2D mesh
ASCII

DATASET UNSTRUCTURED_GRID
POINTS 6176 float
  1.0000000000000000   0.0000000000000000   0.0000000000000000
  0.9979736161243241   0.0002872981906159   0.0000000000000000
  0.9959038003591104   0.0005818082753016   0.0000000000000000
  0.9937894604158818   0.0008826109490225   0.0000000000000000
  0.9916311447855282   0.0011889740049165   0.0000000000000000
  0.9894256878168368   0.0015011074645448   0.0000000000000000
  0.9871732566523234   0.0018189104108560   0.0000000000000000
  0.9848739492731372   0.0021423104928037   0.0000000000000000
  0.9825241245750710   0.0024717658271048   0.0000000000000000
  0.9801244133260449   0.0028071825305054   0.0000000000000000
  0.9776732769852096   0.0031487906039340   0.0000000000000000
  0.9751690039483889   0.0034968357351786   0.0000000000000000
  0.9726117072730877   0.0038512643819321   0.0000000000000000
  0.9700001180350898   0.0042121148976419   0.0000000000000000
  0.9673332227148538   0.0045793859121594   0.0000000000000000
  0.9646079236541195   0.0049533708962095   0.0000000000000000
  0.9618249648196705   0.0053338679490647   0.0000000000000000
  0.9589807878895711   0.0057213439443832   0.0000000000000000
  0.9560767311296049   0.0061156062701256   0.0000000000000000
  0.9531120216710255   0.0065167463399167   0.0000000000000000
  0.9500819018783057   0.0069253778138591   0.0000000000000000
  0.9469876484068450   0.0073412143029309   0.0000000000000000
  0.9438286210030068   0.0077641908681895   0.0000000000000000
  0.9406001269296587   0.0081947829660712   0.0000000000000000
  0.9373041277084813   0.0086325757434285   0.0000000000000000
  0.9339368121646437   0.0090779560824189   0.0000000000000000
  0.9304976431076690   0.0095309377793780   0.0000000000000000
  0.9269838874379289   0.0099918267186165   0.0000000000000000
  0.9233965242394278   0.0104604374002928   0.0000000000000000
  0.9197323684717913   0.0109371203977286   0.0000000000000000
  0.9159901296799260   0.0114219111797446   0.0000000000000000
  0.9121662515702946   0.0119150917142392   0.0000000000000000
  0.9082612640703632   0.0124164093968364   0.0000000000000000
  0.9042711890176098   0.0129261849544228   0.0000000000000000
  0.9001985925103467   0.0134439182275261   0.0000000000000000
  0.8960367883853674   0.0139703538547480   0.0000000000000000
  0.8917881131106570   0.0145051006126241   0.0000000000000000
  0.8874465968544013   0.0150488093430172   0.0000000000000000
  0.8830132689405343   0.0156012428338051   0.0000000000000000
  0.8784843643309772   0.0161627200549514   0.0000000000000000
  0.8738585592690924   0.0167332093564690   0.0000000000000000
  0.8691331845657406   0.0173128340473851   0.0000000000000000
  0.8643080629784704   0.0179014022230632   0.0000000000000000
  0.8593790220315882   0.0184992057974382   0.0000000000000000
  0.8543443022105112   0.0191062525475961   0.0000000000000000
  0.8492020742372332   0.0197225542022908   0.0000000000000000
  0.8439504592998461   0.0203481184762133   0.0000000000000000
  0.8385847225217766   0.0209832807547837   0.0000000000000000
  0.8331043690503205   0.0216278714070098   0.0000000000000000
  0.8275075883744546   0.0222818740978654   0.0000000000000000
  0.8217896079901662   0.0229456038551552   0.0000000000000000
  0.8159499389768221   0.0236188617887649   0.0000000000000000
  0.8099850870934132   0.0243017702717010   0.0000000000000000
  0.8038929332928342   0.0249942623102002   0.0000000000000000
  0.7976697970229181   0.0256964297179088   0.0000000000000000
  0.7913134730328051   0.0264081777898121   0.0000000000000000
  0.7848218596203610   0.0271293903098903   0.0000000000000000
  0.7781898173908960   0.0278602762976724   0.0000000000000000
  0.7714169256365310   0.0286005013921829   0.0000000000000000
  0.7644979701754163   0.0293502351726533   0.0000000000000000
  0.7574308659438134   0.0301093068082177   0.0000000000000000
  0.7502135053150701   0.0308775557618342   0.0000000000000000
  0.7428404612557281   0.0316551512399728   0.0000000000000000
  0.7353096164115749   0.0324418730798164   0.0000000000000000
  0.7276172963491144   0.0332375368705936   0.0000000000000000
  0.7197598859172740   0.0340418579688506   0.0000000000000000
  0.7117355290536627   0.0348543282856948   0.0000000000000000
  0.7035389878799579   0.0356747811793425   0.0000000000000000
  0.6951650952820780   0.0365031090698871   0.0000000000000000
  0.6866122709923126   0.0373388258653197   0.0000000000000000
  0.6778754950330185   0.0381817369178559   0.0000000000000000
  0.6689534383202176   0.0390312029136988   0.0000000000000000
  0.6598376964403885   0.0398871771799410   0.0000000000000000
  0.6505290121117546   0.0407486821288951   0.0000000000000000
  0.6410191910005383   0.0416153892989160   0.0000000000000000
  0.6313056496470314   0.0424862165552765   0.0000000000000000
  0.6213823079172336   0.0433602824420315   0.0000000000000000
  0.6112489281649386   0.0442362457646169   0.0000000000000000
  0.6008963123926909   0.0451137308907019   0.0000000000000000
  0.5903211292528141   0.0459917803130241   0.0000000000000000
  0.5795184839365645   0.0468692540951747   0.0000000000000000
  0.5684857150099230   0.0477443424041717   0.0000000000000000
  0.5572148862675538   0.0486154402631608   0.0000000000000000
  0.5457024491672809   0.0494805599680832   0.0000000000000000
  0.5339780836677636   0.0503353194116202   0.0000000000000000
  0.5219860728183490   0.0511813660693644   0.0000000000000000
  0.5101253307512127   0.0519891081313360   0.0000000000000000
  0.4985043971600128   0.0527514649709832   0.0000000000000000
  0.4871181100865982   0.0534694955937708   0.0000000000000000
  0.4759663238182478   0.0541439373921026   0.0000000000000000
  0.4650424897306392   0.0547759224024376   0.0000000000000000
  0.4543414694194311   0.0553665338532900   0.0000000000000000
  0.4438615277983380   0.0559167464857066   0.0000000000000000
  0.4335966445555638   0.0564277439227250   0.0000000000000000
  0.4235422171719039   0.0569005367499369   0.0000000000000000
  0.4136931783754329   0.0573360485787389   0.0000000000000000
  0.4040479201781875   0.0577350333573017   0.0000000000000000
  0.3946007843384192   0.0580984587592611   0.0000000000000000
  0.3853459130056055   0.0584273588583778   0.0000000000000000
  0.3762828394437238   0.0587225582688298   0.0000000000000000
  0.3674052759622001   0.0589850521268143   0.0000000000000000
  0.3587104110044708   0.0592156767487264   0.0000000000000000
  0.3501952433465900   0.0594152538281565   0.0000000000000000
  0.3418548081050912   0.0595846279097528   0.0000000000000000
  0.3336858663230149   0.0597246577421592   0.0000000000000000
  0.3256868701986138   0.0598362486465025   0.0000000000000000
  0.3178507769372301   0.0599203474438374   0.0000000000000000
  0.3101776523444911   0.0599777679649948   0.0000000000000000
  0.3026620994593082   0.0600092896252224   0.0000000000000000
  0.2953022098091474   0.0600156089816429   0.0000000000000000
  0.2880942515540157   0.0599974067416477   0.0000000000000000
  0.2810344582773878   0.0599553507162620   0.0000000000000000
  0.2741224198462300   0.0598902308958287   0.0000000000000000
  0.2673508102792782   0.0598027829062179   0.0000000000000000
  0.2607208372897423   0.0596938009430880   0.0000000000000000
  0.2542268737219818   0.0595639532054747   0.0000000000000000
  0.2478699323930078   0.0594139942796022   0.0000000000000000
  0.2416426526986943   0.0592444560641495   0.0000000000000000
  0.2355443386744786   0.0590559928562533   0.0000000000000000
  0.2295742285057687   0.0588492600763349   0.0000000000000000
  0.2237267309732288   0.0586247739586633   0.0000000000000000
  0.2180011540540604   0.0583832555000465   0.0000000000000000
  0.2123936096745636   0.0581252700988444   0.0000000000000000
  0.2069018249031851   0.0578514118247249   0.0000000000000000
  0.2015265925874962   0.0575624139311738   0.0000000000000000
  0.1962639217171782   0.0572587327640815   0.0000000000000000
  0.1911098627978642   0.0569407701058159   0.0000000000000000
  0.1860635373512509   0.0566090833477142   0.0000000000000000
  0.1811225555455632   0.0562641183158228   0.0000000000000000
  0.1762831066659017   0.0559062017034564   0.0000000000000000
  0.1715472965099615   0.0555361405439852   0.0000000000000000
  0.1669099315072494   0.0551541804881659   0.0000000000000000
  0.1623702175183220   0.0547608759938091   0.0000000000000000
  0.1579259317985442   0.0543566416724963   0.0000000000000000
  0.1535748664842349   0.0539418626674859   0.0000000000000000
  0.1493147619729656   0.0535168899310313   0.0000000000000000
  0.1451447283274916   0.0530821904592715   0.0000000000000000
  0.1410625235604109   0.0526380756497570   0.0000000000000000
  0.1370659530359299   0.0521848322503466   0.0000000000000000
  0.1331567814638518   0.0517231967360234   0.0000000000000000
  0.1293276562313525   0.0512528455259629   0.0000000000000000
  0.1255804504092525   0.0507745502773552   0.0000000000000000
  0.1219131281255899   0.0502885988465475   0.0000000000000000
  0.1183237015509818   0.0497952534010120   0.0000000000000000
  0.1148102318092792   0.0492947513229479   0.0000000000000000
  0.1113720175725520   0.0487874812015910   0.0000000000000000
  0.1080070759532941   0.0482736140267307   0.0000000000000000
  0.1047146335147149   0.0477534816268928   0.0000000000000000
  0.1014927513745349   0.0472272179600503   0.0000000000000000
  0.0983395479756496   0.0466949369878610   0.0000000000000000
  0.0952554508934213   0.0461571322873805   0.0000000000000000
  0.0922363866432952   0.0456135046927440   0.0000000000000000
  0.0892828700951544   0.0450645654218522   0.0000000000000000
  0.0863942718297865   0.0445106297655928   0.0000000000000000
  0.0835678320075330   0.0439515803137779   0.0000000000000000
  0.0808019575920066   0.0433874837688950   0.0000000000000000
  0.0780971710598979   0.0428188278852694   0.0000000000000000
[...]
POINT_DATA 6176
SCALARS continuity float
LOOKUP_TABLE default
-0.0012767356735142652
-0.001379217785973864
-0.0017850474949922313
-0.0015991588896864114
-0.0011080568669442812
-0.0008284205530829999
-0.000735957302665345
-0.0006676397486815246
-0.0006160388436067277
-0.0005696270258229648
-0.0005038547018091772
-0.00047465873906833744
-0.00042435544353566996
-0.0004005269618954912
-0.00038496039084474307
-0.00040518843929980656
-0.0003725291900570012
-0.0003405643505041958
-0.00022027440734533765
-0.00014588022859074554
-5.713897375136155e-05
-3.806550523134699e-06
2.9363600896304974e-05
2.7888283589839838e-05
2.867394476466011e-05
0.00010047457183034932
0.00022972776533590033
0.00039530523266316796
0.0005152166988398309
0.0005884652891181774
0.0006427492251991126
0.0006864572042936331
0.0007196253897537409
0.0007141887109423694
0.0006991963981261291
0.0007548135169986807
0.0008560880941910714
0.001007071729222115
0.001081518299392138
0.0010646140910819562
0.0010114972581408144
0.0009281038434169312
0.0008136282379437639
0.0007310113375845371
0.0007031980766006641
0.0006940499851759998
0.0006226034763651154
0.00044511455575544674
0.00020954257036246243
-2.869093265080018e-05
-0.0002516076337875233
-0.00043726888036466207
-0.0005782314664486249
-0.0007022476820789477
-0.000870404251650307
-0.0011231694096400806
-0.001435788885920797
-0.0017379144593667923
-0.0019974679125827877
-0.0021997719710232914
-0.0023523257313235162
-0.0024987853211304294
-0.0026920404757694756
-0.0029524968010284877
-0.0032527064047597437
-0.0035618485582970365
-0.0038696774264784057
-0.004176199281203977
-0.004454202206805836
-0.004680951706661213
-0.004846876455321456
-0.00497746447984631
-0.005100797739339099
-0.0052216525864238915
-0.005308439983176324
-0.005340122559732853
-0.005302591338042608
-0.005191988672823134
-0.005023514524386076
-0.004809124638747924
-0.004560455204450684
-0.0042603240701929255
-0.003897393207282495
-0.0034501932794855
-0.0029608592612451697
-0.0026944876182709602
-0.002331089291861187
-0.0016996899201933524
-0.0010238469638882556
-0.00036686463105343857
0.00024104365187367147
0.0008133042352070154
0.0013572549633757524
0.0018595312201636531
0.0022928819162570655
0.0026562503415542456
0.0029588045542691043
0.0032013116733512256
0.0033640910833511103
0.0034395000585887197
0.003459128223260367
0.0034595180024527355
0.003453371825147003
0.0034338436689918045
0.0033953127781659103
0.0033582511443062376
0.0033358113966881317
0.003317857565452184
0.0032749461874319367
0.003207040067496656
0.00314194877511935
0.003103148725921342
0.0030794664118996146
0.003040752494285242
0.0029907585041099682
0.0029477009724459637
0.002913504634044382
0.0028670500380831195
0.00279356238366784
0.002694322164750985
0.002602770605818096
0.002530174824883867
0.0024651408047590547
0.002401533718793778
0.002341608894007958
0.0022863625972017495
0.0022354860208357264
0.002214483131014906
0.0022127603248582213
0.0021766717466759726
0.0021146535870825247
0.002045314527714206
0.0019952127392369665
0.0019542720588946855
0.0018936906385934834
0.0018801319236370314
0.002007972717726715
0.002042088078346879
0.001993980083084391
0.0019910158777368815
0.0019834465721303733
0.0019593112875166212
0.0019295165595552468
0.0018746278169326986
0.0018234301216571184
0.0019795063073603514
0.0021228369151394845
0.0021643517894137715
0.002214559709412642
0.0023172188293007472
0.00240570297964391
0.0024569774277365176
0.0024764224358340818
0.0027196703667206864
0.002634602423433907
0.002639875418591934
0.0026840131084979683
0.0027833964806381712
0.0028552391787859143
0.0030240953536873807
0.0031633414771222576
0.0032659319634812914
0.0037342501943209857
0.003751615904839204
0.003825844204199796
0.0037972388995100976
0.003942151742174074
0.0039565563691765955
0.004128524151098225
0.004247945468917201
0.004344168911787479
0.004457169654413665
0.004538343324044243
0.0044941866838964116
0.004518543039701094
0.004513706955369454
0.0045613416135121924
0.004946018866369959
0.004569013217429665
0.005114893669990663
0.004716851287386572
0.005489594963106983
0.00498447290134491
0.005949477031265182
0.005444796877553698
0.006390993433127547
0.00576569371862281
0.0067209540380393775
0.0060022138100437284
0.007111373535966189
0.0058697854554585665
0.006066005040821642
0.0059280090354861875
0.005845248701735822
0.005803254457690633
0.005829904450845559
0.005785304269916058
0.005677534824568618
0.005637831054535678
0.005534255930130157
0.00529393060074286
0.004952129381154011
0.0044759017105949995
0.004359968017079591
0.0026649198980481085
0.0013129999891414808
0.0007527678852223621
0.00028975995259333175
-0.0005763193752127097
-0.0014088192610926373
-0.002352529965680899
-0.002222453692199291
-0.0029617910501902687
-0.003985740359389402
-0.004617903007562586
-0.005040360086957068
-0.005622535952730372
-0.004341889241693581
-0.006523775320695075
-0.006784968321214044
-0.006129515568686378
-0.005337380313187645
-0.004842564457039458
-0.004546394970989442
-0.004123063892257786
-0.003674468045231927
-0.0031671283002829252
-0.0025936117374085045
-0.001990294780255141
-0.0015580041688080597
-0.0010329661828374468
-0.0005267766145765906
0.0002327275040367845
0.0003651111196234441
0.0008720574858729956
0.0011925137126717923
0.001615145629712688
0.0018579830869716266
0.002175287939474484
0.0024029472656239745
0.0026443736815678306
0.0028418535494280648
0.002960859024317649
0.0031695338754739815
0.0032722382197285706
0.0034167481507384086
0.0035020876542677997
0.003582346656727086
0.003561587402094603
0.003625297808408803
0.0037292713933572232
0.00374959253667643
0.0036659954992786675
0.003625728332233682
0.003608756085586558
0.003555403087468965
0.003488590260942038
0.0034325276588095433
0.0033644275236442375
0.003344515241008253
0.0033860140893287216
0.003374489612588448
0.0033670472444861967
0.003315590394310126
0.003206360595268791
0.003114956200009883
0.002967107641516623
0.0028393423324899244
0.002610891727439122
0.0024057737726759206
0.0023764924654524544
0.0021819792668428387
0.0020636356230623776
0.001967257870691828
0.0018563567228752245
0.0017492380722261942
0.0016497160165585677
0.001499399141619855
0.0013064113721646079
0.0011588834763872355
0.000995640074622801
0.0008289163951368924
0.0006573199640513764
0.0004989314579929659
0.00034636509907454485
0.0001699944517268832
4.813321972269277e-06
-0.00012329792205000665
-0.00021215054406383162
-0.0003710415025706003
-0.0005471103142172472
-0.000738909592790338
-0.0009295677854112122
-0.0011192781232130318
-0.0013245143195928586
-0.0015271104295850402
-0.0016692797207908147
-0.001766917849421525
-0.0018546807134898113
-0.00196627793142553
-0.002104105325681523
-0.0022398221720530344
-0.0023877891259874275
-0.002552408604406793
-0.0027027465457893822
-0.0028159392742673063
-0.0029024419905641294
-0.0030160141823385974
-0.0031832010650947097
-0.0033976217182603674
-0.003650679169288211
-0.003941071633003969
-0.00427986604801324
-0.004673389566453849
-0.005086785681874228
-0.0054522744170754835
-0.005710393696984904
-0.0058314015645480125
-0.005795301183441771
-0.005562942596892878
-0.005116437532195074
-0.004466508756660999
-0.0036274376543047257
-0.0026086333117042266
-0.0014349480516785884
-0.00016961227914536462
0.001129837366010982
0.0024102801766298716
0.003624209646798477
0.004722611394165327
0.005681847052945283
0.0065049940280425544
0.007207554272932134
0.0077954726106384846
0.008241622649773123
0.008498494649523871
0.008524395212625059
0.008248533733233256
0.007509866024792526
0.00695824540653894
0.006563752131015579
0.006120223737142307
0.00562192826151612
0.00513008164400148
0.004672262371650701
0.004216238159807136
0.0037150188672712397
0.003156667325885697
0.0025390299038909507
0.0018973844144937046
0.0013105287156218357
0.0008320274151926402
0.00041707604475067024
2.822463731341183e-05
-0.00030783837173918805
-0.0005569737954014464
-0.0007247221796574053
-0.0008570228541738304
-0.0009583509542846725
-0.001000465155892304
-0.0009753419741685205
-0.0009273594948618107
-0.0009006257675291867
-0.0009133183373999178
-0.0009792214215074808
-0.0011034255645611473
-0.001251201570546498
-0.0013638430564450461
-0.0014561469331761437
-0.0015819705012814205
-0.0017269369558324014
-0.001817147350514771
-0.0018560807178714242
-0.0018712946660425199
-0.001882107253735492
-0.001871865658684762
-0.0017966365948264037
-0.0016783372245452095
-0.0015819575126887085
-0.0015046032183638357
-0.0014016833958060769
-0.001289817999648617
-0.0012021451391609598
-0.0011360016937780918
-0.0010859358326046737
-0.0010158663181828393
-0.0009318897953971213
-0.0008883017685188243
-0.000910744689653516
-0.0009477444983253301
-0.0009634028082940933
-0.0009308701977434207
-0.0008833285551347481
-0.0008456387891418062
-0.000813144879454317
-0.0008246452039163357
-0.0008845534112204397
-0.0010086783814344021
-0.0010741227118599298
-0.0010921179320530414
-0.0011687991126269452
-0.001278389174772203
-0.0013969492716992594
-0.0015147815769767775
-0.0016617349515295951
-0.0018204804920324206
-0.002104864518720704
-0.002328270269414755
-0.0026153658901646583
-0.0027716783017609054
-0.002909241192843287
-0.0030462985314725624
-0.0031710180698445584
-0.0032297216270189178
-0.003417741809777965
-0.0035367976225720967
-0.003651947337190329
-0.0037654285102023655
-0.0037940993473902116
-0.003775452146584939
-0.0036838172930530174
-0.003653286983235017
-0.004320443784903956
-0.002609243548027355
-0.002910971708043276
-0.001912911008380691
-0.0034382889633846146
-0.004591419494031482
-0.0035543003123478033
-0.002926112512449595
-0.001697348484563829
0.002251903261612351
-0.001539085287332003
0.005151143190444216
-0.0011749435690205237
0.007879420123769229
-0.0009176147570748594
0.005867692080780066
-0.0007395475795881827
0.002179814324550548
-0.0007518466357618068
0.006172021237885225
-0.0006843410628591074
0.004229942251035984
-0.0006354664238619131
0.0062735449197276775
-0.0005896530351880842
0.0020926793583778427
-0.0005445318467445531
0.00667203057106477
-0.00047993223395242305
0.0007178949533105862
-0.00044541317888384624
0.006610319027698095
-0.0004233276324327321
0.0020020373265552767
-0.00041585891572637045
0.006296655725182909
-0.00042954874748330775
0.00467179079979356
-0.0004107776060886757
0.006409871752319974
-0.00036350246073105826
0.0019436856813592532
-0.00029335446335522155
0.005895099496607205
-0.00016546119251856277
0.004375470632899029
-8.684602314657792e-05
0.00614049021229157
-4.409739659250878e-05
0.0018690099255031338
-4.039734066908921e-05
0.00582641813388346
-2.2667291909055926e-05
0.004968682023520512
1.1675262004113865e-07
0.005764804404969722
9.145235711765498e-05
0.0018076167836647173
0.00022090023585107077
0.0057969521185095
0.00036711448345553947
0.0006429961347497298
0.00047441589468956376
0.006119280838593584
0.0005466390269207656
0.00173925919719216
0.0006018252656915555
0.0059141474524754
0.0006444172176132121
0.004890012030890551
0.0006704840028906978
0.005875295934215775
0.0006562348500388374
0.001684564016333764
0.0006738275092681195
0.005599793544083355
0.0007326027616384392
0.0056175880492572786
0.0008613505244324268
0.005666535047961809
0.0009974166545974779
0.0016527316655221805
0.001055781051756588
0.005301657565750946
0.0010382245164188646
0.004699278167211501
0.0009850134885325617
0.0054021880774244024
0.0008911144797804696
0.0016257433859375886
0.0007847684667722216
0.004960567951852026
0.0007201887600742351
0.0004753090636123062
0.0006979271152231325
0.004994099228026373
0.0006832453045223931
0.0015047746334696907
0.0005813307967678533
0.004523374724775526
0.0003882774482782803
0.004540106059970685
0.0001545285248217834
0.004458023433265088
-8.194075409083741e-05
0.001464202050857051
-0.0003005685565314771
0.004354279919397068
-0.00047328537468092777
0.004634704225423547
-0.0006055473708673659
0.004288013177343213
-0.0007335071639489904
0.0013764467304102912
-0.0009224677253148316
0.00420107649738035
-0.0011976050345325446
0.004973607846548225
-0.0015067228090699305
0.0042121407105646415
-0.0018002907698400844
0.0013695183870256482
-0.002045865268441987
0.004046852594275669
-0.002231180347017639
0.0005651007248466948
-0.002372133406798474
0.004062518371366257
-0.00252268759816388
0.0013005150990966765
-0.002729662140472681
0.003965833835585301
-0.002997708739065174
0.00497907771364047
-0.0032973409715887254
0.004056203369581816
-0.003604067610674266
0.0013009666218897773
-0.003911812053354899
0.003998559319993324
-0.0042162180550860805
-0.0012474579049063486
-0.0044851920638538404
0.004014815120936044
-0.004697490131660322
0.0012864711129786988
-0.004852513862060363
0.0036470200469841878
-0.004981583976321639
0.004941889598627582
-0.005108018588718953
0.003437659381095775
-0.005224410110740364
0.0012956282715429202
-0.005305209504253433
0.0032533965073143494
-0.00532496359457316
0.0006329485959541946
-0.005269975546984177
0.0031511648243418874
-0.0051439947915468765
0.00131577617121551
-0.0049616597222597375
0.0031619935401441027
-0.004737821741380938
0.004723904258284755
-0.004479270297764804
0.0031112829643599807
-0.004169670098611762
0.0012435080796547805
-0.0037992180708662222
0.0032087769481066713
-0.0033497661854529808
0.0043028748973656435
-0.0028633293337225734
0.0034036973479174863
-0.0027167846206622177
0.0011582234894729419
-0.002438899852078387
0.0031072909894548626
-0.0018364855462186425
0.004848093472197745
-0.0011692657698750607
0.002845211817791483
-0.0005009535596298193
0.0011810957909040227
0.0001187260148478696
0.002665159631921616
0.0006917017203988345
0.000830826935956906
0.0012363066914709154
0.0023741764353648726
0.0017438013751031327
0.001090837711194683
0.0021902376836556076
0.002172077265234764
0.0025635796173616187
0.005141822261261951
0.0028690586079395193
0.001963019075747845
0.0031167954090776323
0.0012361004968938839
0.003289718385631238
0.001765156731934184
0.003381540082099363
0.005931223588126497
0.003405324389754537
0.0016674798664844607
0.0034013843894884314
0.0012532626199893955
0.003390646357018959
0.0018272457932506322
0.0033703308683874313
0.004296419393478135
0.0033309850520741317
0.0019337591034525193
0.003289725512271924
0.0013203354937183598
0.003256930833024916
0.0018645711349862932
0.0032347876866017007
-0.00010886531044048596
0.0031968028161583778
0.001760945492096017
0.0031376103960872874
0.0013410929953693207
0.00307140466076949
0.0016869436622019307
0.003020354419756488
0.005137776847823813
0.002980122535754926
0.0015795396620164462
0.002935135795203586
0.0012893933596589272
0.002879583489578396
0.0014517671231592043
0.00282308749071831
-0.005304094116420958
0.0027763609289822113
0.0013007344621123048
0.00272440088815475
0.0012373472557959033
0.002656150350128352
0.0010669542510495123
0.002569344871669192
0.0047314016321061275
0.002465381204652452
0.0011509046726302275
0.002367267600624786
0.0014200804621929178
0.002283498929370647
0.00113138115875265
0.002205254383828727
0.0009462130662126264
0.002134833700005208
0.0011094369733385089
0.002064526777804977
0.0013356757424198267
0.001993849576197055
0.0011705662419027759
0.0019739203035340335
0.004474077196833778
0.001988769671511932
0.0011807996903621045
0.0019519068895616828
0.0014274585253461214
0.0018720920608970325
0.0011804512008915355
0.0017715366283624302
0.0042896599818732705
0.0016995949701857063
0.0011729537045589915
0.001649623154715379
0.0014848308136628792
0.0015572033787128595
0.0012325065371281588
0.0015333542079455594
0.004489873263206437
0.0016558162242206204
0.0011926171894859076
0.0016597643418832092
0.0015751869259283215
0.0016026971401849504
0.0011583834513835157
0.001568378833824535
0.0011329207061286962
0.001542642800939174
0.0010980303739443389
0.0015008076439705018
0.0016293548546034273
0.0014519288503503972
0.0011387930652303148
0.0013335759672701817
0.004209019013402867
0.0013536294092107892
0.0012425369728252926
0.0014408673453251675
0.0017028596127216615
0.0015743905233520752
0.0012556615802397613
0.0016806289977945917
0.00748392542927936
0.0016996562937023779
0.0013117605452102046
0.0017757220350055518
0.0017337587687588966
0.0018618152510981004
0.0013592526629130222
0.001826889939084132
0.0038676742516726734
0.0019158289528656417
0.0014350917426516332
0.001993912815080259
0.0018053426441481252
0.001963777386293051
0.001425703897935981
0.0018984439125562724
0.0013227222650122673
0.001889332951710173
0.0014262097813155692
0.002149543182925525
0.0020291395281825573
0.0022245655103281994
0.0014541426508310855
0.002350816169033294
0.0037239032113556285
0.0025195270627142085
0.0015660502244935989
0.002637621928044306
0.0018600549374380205
0.0028619590507903
0.0016088155515807962
0.003083129305336536
0.003436160093847236
0.002963133804206719
0.0016588111713238996
0.0029486430549835684
0.00194117289833136
0.0031071757352693205
0.00173745584226859
0.003069822958189829
0.003913343580281993
0.0032554440872999395
0.0018417354260776213
0.0032292342574363597
0.001978867212053794
0.003303594462165754
0.0019492043012179607
0.0036224578370926013
0.001353789245863493
0.003628015827632147
0.0020539852725711184
0.003687308266327865
0.0022538016828850998
0.0035919772909533566
0.0021206474236928753
0.0037249871228258497
-0.0037995703271109095
0.0037064715713897257
0.002193258505063692
0.003883938109890504
0.002376740136030178
0.0037157406938511184
0.002272944293822903
0.00396744248613718
0.006298133504358563
0.003747466966206786
0.0023430653496805277
0.004142129903482065
0.00253917843925024
0.003969451565038043
0.0024099998159984844
0.004617201134180637
0.00409903547921576
0.004477091447800614
0.0024822444253655824
0.005032169846842845
0.002659293095081176
0.00480675118365165
0.0025482624779900646
0.005291876296252257
0.0013426421865410368
0.005044221713903378
0.0026083207573145088
0.005369634948574779
0.002973773329330827
0.0051773174404862
0.002678229351103731
0.0054081880142413455
-0.0006598581076810983
0.0052816264897831075
0.0027555406939709028
0.005314565306524639
0.0029296741600021493
0.005258207719284145
0.0028380017510900492
0.005587838483318048
0.0032735949957952053
0.005639059799044249
0.0029044281459718845
0.005978967675244349
0.0027368990480788028
0.006170661887599969
0.002954412605100144
0.006723371352999984
0.00392423682564097
0.007083339757946282
0.0030159911203608922
0.007436556898128966
0.0027296022380444017
0.007541536658638118
0.003088623594909657
0.007064488624332172
0.0016119686032615064
0.006010426246743976
0.0031519377596530116
0.005320417556931373
0.0028816608477324947
0.004962728814028505
0.003192631855156721
0.004042486450650673
0.0036809067519238533
0.0029913324680773128
0.0032277171143347324
0.0017563682296501619
0.0029077441602143052
0.0011607559579641861
0.0032552191430141697
0.000153722687968749
0.003853092034758419
-0.0013717297764676776
0.0032577802525978593
-0.0028568439608441113
0.0031274166907964765
-0.0040874654178691475
0.003196158949550657
-0.005164133867808258
0.003618727664368085
-0.00610187847000613
0.00304614577156624
-0.0071492559196820816
0.0036589386660334402
-0.008331884198612619
0.002829362938839744
-0.008500320426247652
0.0016155091849420287
-0.008428672244540292
0.002549522558454398
-0.007877860552003147
0.003765502250199248
-0.007350688011875528
0.0021955773702425525
-0.006623206211893342
0.0035207058725774433
-0.005967736084837689
0.0017631569220634689
-0.005200258943713695
0.004034690884351799
-0.0043614728224536945
0.0012652661394759632
-0.0036821335079733355
0.0030473170815848946
-0.0028693005815621795
0.0007358676441556447
-0.002337727312621452
0.004285754578046181
-0.0016802371257536618
0.0001751674495801559
-0.0011505571665481466
0.0031705617708260936
-0.0005559979809577134
-0.0004415213097690791
-5.711135239417504e-05
0.00013976522216272396
0.00040666325410111995
-0.001113038039226551
0.000809061324101771
0.002068554356053903
0.0012473216416548291
-0.0017598178813248327
0.0015475287783773032
0.004405441689471907
0.0018980244442320896
-0.002316610245053625
0.0021437852373123742
0.003140011511764953
0.0024342082292843504
-0.0026504135972155412