# vtk DataFile Version 1.0
GRUMMP topologically 2D mesh
ASCII

DATASET UNSTRUCTURED_GRID
POINTS 6176 float
  1.0000000000000000   0.0000000000000000   0.0000000000000000
  0.9979736161243241   0.0002872981906159   0.0000000000000000
  0.9959038003591104   0.0005818082753016   0.0000000000000000
  0.9937894604158818   0.0008826109490225   0.0000000000000000
  0.9916311447855282   0.0011889740049165   0.0000000000000000
  0.9894256878168368   0.0015011074645448   0.0000000000000000
  0.9871732566523234   0.0018189104108560   0.0000000000000000
  0.9848739492731372   0.0021423104928037   0.0000000000000000
  0.9825241245750710   0.0024717658271048   0.0000000000000000
  0.9801244133260449   0.0028071825305054   0.0000000000000000
  0.9776732769852096   0.0031487906039340   0.0000000000000000
  0.9751690039483889   0.0034968357351786   0.0000000000000000
  0.9726117072730877   0.0038512643819321   0.0000000000000000
  0.9700001180350898   0.0042121148976419   0.0000000000000000
  0.9673332227148538   0.0045793859121594   0.0000000000000000
  0.9646079236541195   0.0049533708962095   0.0000000000000000
  0.9618249648196705   0.0053338679490647   0.0000000000000000
  0.9589807878895711   0.0057213439443832   0.0000000000000000
  0.9560767311296049   0.0061156062701256   0.0000000000000000
  0.9531120216710255   0.0065167463399167   0.0000000000000000
  0.9500819018783057   0.0069253778138591   0.0000000000000000
  0.9469876484068450   0.0073412143029309   0.0000000000000000
  0.9438286210030068   0.0077641908681895   0.0000000000000000
  0.9406001269296587   0.0081947829660712   0.0000000000000000
  0.9373041277084813   0.0086325757434285   0.0000000000000000
  0.9339368121646437   0.0090779560824189   0.0000000000000000
  0.9304976431076690   0.0095309377793780   0.0000000000000000
  0.9269838874379289   0.0099918267186165   0.0000000000000000
  0.9233965242394278   0.0104604374002928   0.0000000000000000
  0.9197323684717913   0.0109371203977286   0.0000000000000000
  0.9159901296799260   0.0114219111797446   0.0000000000000000
  0.9121662515702946   0.0119150917142392   0.0000000000000000
  0.9082612640703632   0.0124164093968364   0.0000000000000000
  0.9042711890176098   0.0129261849544228   0.0000000000000000
  0.9001985925103467   0.0134439182275261   0.0000000000000000
  0.8960367883853674   0.0139703538547480   0.0000000000000000
  0.8917881131106570   0.0145051006126241   0.0000000000000000
  0.8874465968544013   0.0150488093430172   0.0000000000000000
  0.8830132689405343   0.0156012428338051   0.0000000000000000
  0.8784843643309772   0.0161627200549514   0.0000000000000000
  0.8738585592690924   0.0167332093564690   0.0000000000000000
  0.8691331845657406   0.0173128340473851   0.0000000000000000
  0.8643080629784704   0.0179014022230632   0.0000000000000000
  0.8593790220315882   0.0184992057974382   0.0000000000000000
  0.8543443022105112   0.0191062525475961   0.0000000000000000
  0.8492020742372332   0.0197225542022908   0.0000000000000000
  0.8439504592998461   0.0203481184762133   0.0000000000000000
  0.8385847225217766   0.0209832807547837   0.0000000000000000
  0.8331043690503205   0.0216278714070098   0.0000000000000000
  0.8275075883744546   0.0222818740978654   0.0000000000000000
  0.8217896079901662   0.0229456038551552   0.0000000000000000
  0.8159499389768221   0.0236188617887649   0.0000000000000000
  0.8099850870934132   0.0243017702717010   0.0000000000000000
  0.8038929332928342   0.0249942623102002   0.0000000000000000
  0.7976697970229181   0.0256964297179088   0.0000000000000000
  0.7913134730328051   0.0264081777898121   0.0000000000000000
  0.7848218596203610   0.0271293903098903   0.0000000000000000
  0.7781898173908960   0.0278602762976724   0.0000000000000000
  0.7714169256365310   0.0286005013921829   0.0000000000000000
  0.7644979701754163   0.0293502351726533   0.0000000000000000
  0.7574308659438134   0.0301093068082177   0.0000000000000000
  0.7502135053150701   0.0308775557618342   0.0000000000000000
  0.7428404612557281   0.0316551512399728   0.0000000000000000
  0.7353096164115749   0.0324418730798164   0.0000000000000000
  0.7276172963491144   0.0332375368705936   0.0000000000000000
  0.7197598859172740   0.0340418579688506   0.0000000000000000
  0.7117355290536627   0.0348543282856948   0.0000000000000000
  0.7035389878799579   0.0356747811793425   0.0000000000000000
  0.6951650952820780   0.0365031090698871   0.0000000000000000
  0.6866122709923126   0.0373388258653197   0.0000000000000000
  0.6778754950330185   0.0381817369178559   0.0000000000000000
  0.6689534383202176   0.0390312029136988   0.0000000000000000
  0.6598376964403885   0.0398871771799410   0.0000000000000000
  0.6505290121117546   0.0407486821288951   0.0000000000000000
  0.6410191910005383   0.0416153892989160   0.0000000000000000
  0.6313056496470314   0.0424862165552765   0.0000000000000000
  0.6213823079172336   0.0433602824420315   0.0000000000000000
  0.6112489281649386   0.0442362457646169   0.0000000000000000
  0.6008963123926909   0.0451137308907019   0.0000000000000000
  0.5903211292528141   0.0459917803130241   0.0000000000000000
  0.5795184839365645   0.0468692540951747   0.0000000000000000
  0.5684857150099230   0.0477443424041717   0.0000000000000000
  0.5572148862675538   0.0486154402631608   0.0000000000000000
  0.5457024491672809   0.0494805599680832   0.0000000000000000
  0.5339780836677636   0.0503353194116202   0.0000000000000000
  0.5219860728183490   0.0511813660693644   0.0000000000000000
  0.5101253307512127   0.0519891081313360   0.0000000000000000
  0.4985043971600128   0.0527514649709832   0.0000000000000000
  0.4871181100865982   0.0534694955937708   0.0000000000000000
  0.4759663238182478   0.0541439373921026   0.0000000000000000
  0.4650424897306392   0.0547759224024376   0.0000000000000000
  0.4543414694194311   0.0553665338532900   0.0000000000000000
  0.4438615277983380   0.0559167464857066   0.0000000000000000
  0.4335966445555638   0.0564277439227250   0.0000000000000000
  0.4235422171719039   0.0569005367499369   0.0000000000000000
  0.4136931783754329   0.0573360485787389   0.0000000000000000
  0.4040479201781875   0.0577350333573017   0.0000000000000000
  0.3946007843384192   0.0580984587592611   0.0000000000000000
  0.3853459130056055   0.0584273588583778   0.0000000000000000
  0.3762828394437238   0.0587225582688298   0.0000000000000000
  0.3674052759622001   0.0589850521268143   0.0000000000000000
  0.3587104110044708   0.0592156767487264   0.0000000000000000
  0.3501952433465900   0.0594152538281565   0.0000000000000000
  0.3418548081050912   0.0595846279097528   0.0000000000000000
  0.3336858663230149   0.0597246577421592   0.0000000000000000
  0.3256868701986138   0.0598362486465025   0.0000000000000000
  0.3178507769372301   0.0599203474438374   0.0000000000000000
  0.3101776523444911   0.0599777679649948   0.0000000000000000
  0.3026620994593082   0.0600092896252224   0.0000000000000000
  0.2953022098091474   0.0600156089816429   0.0000000000000000
  0.2880942515540157   0.0599974067416477   0.0000000000000000
  0.2810344582773878   0.0599553507162620   0.0000000000000000
  0.2741224198462300   0.0598902308958287   0.0000000000000000
  0.2673508102792782   0.0598027829062179   0.0000000000000000
  0.2607208372897423   0.0596938009430880   0.0000000000000000
  0.2542268737219818   0.0595639532054747   0.0000000000000000
  0.2478699323930078   0.0594139942796022   0.0000000000000000
  0.2416426526986943   0.0592444560641495   0.0000000000000000
  0.2355443386744786   0.0590559928562533   0.0000000000000000
  0.2295742285057687   0.0588492600763349   0.0000000000000000
  0.2237267309732288   0.0586247739586633   0.0000000000000000
  0.2180011540540604   0.0583832555000465   0.0000000000000000
  0.2123936096745636   0.0581252700988444   0.0000000000000000
  0.2069018249031851   0.0578514118247249   0.0000000000000000
  0.2015265925874962   0.0575624139311738   0.0000000000000000
  0.1962639217171782   0.0572587327640815   0.0000000000000000
  0.1911098627978642   0.0569407701058159   0.0000000000000000
  0.1860635373512509   0.0566090833477142   0.0000000000000000
  0.1811225555455632   0.0562641183158228   0.0000000000000000
  0.1762831066659017   0.0559062017034564   0.0000000000000000
  0.1715472965099615   0.0555361405439852   0.0000000000000000
  0.1669099315072494   0.0551541804881659   0.0000000000000000
  0.1623702175183220   0.0547608759938091   0.0000000000000000
  0.1579259317985442   0.0543566416724963   0.0000000000000000
  0.1535748664842349   0.0539418626674859   0.0000000000000000
  0.1493147619729656   0.0535168899310313   0.0000000000000000
  0.1451447283274916   0.0530821904592715   0.0000000000000000
  0.1410625235604109   0.0526380756497570   0.0000000000000000
  0.1370659530359299   0.0521848322503466   0.0000000000000000
  0.1331567814638518   0.0517231967360234   0.0000000000000000
  0.1293276562313525   0.0512528455259629   0.0000000000000000
  0.1255804504092525   0.0507745502773552   0.0000000000000000
  0.1219131281255899   0.0502885988465475   0.0000000000000000
  0.1183237015509818   0.0497952534010120   0.0000000000000000
  0.1148102318092792   0.0492947513229479   0.0000000000000000
  0.1113720175725520   0.0487874812015910   0.0000000000000000
  0.1080070759532941   0.0482736140267307   0.0000000000000000
  0.1047146335147149   0.0477534816268928   0.0000000000000000
  0.1014927513745349   0.0472272179600503   0.0000000000000000
  0.0983395479756496   0.0466949369878610   0.0000000000000000
  0.0952554508934213   0.0461571322873805   0.0000000000000000
  0.0922363866432952   0.0456135046927440   0.0000000000000000
  0.0892828700951544   0.0450645654218522   0.0000000000000000
  0.0863942718297865   0.0445106297655928   0.0000000000000000
  0.0835678320075330   0.0439515803137779   0.0000000000000000
  0.0808019575920066   0.0433874837688950   0.0000000000000000
  0.0780971710598979   0.0428188278852694   0.0000000000000000
[...]
POINT_DATA 6176
SCALARS continuity float
LOOKUP_TABLE default
-0.0012842983820370035
-0.00012299776641607417
-0.00025110618487123113
-6.724887372049963e-05
8.743873598455352e-05
0.0002170099380997594
0.0003227528224594887
0.00042118297944871737
0.0005130237707399953
0.0006131376720972341
0.0006492567848020391
0.0007317408797736077
0.0007867969054256171
0.0008310911016558201
0.0008509004238318301
0.0009021863301725217
0.0009267636204056638
0.0009511214659325121
0.0009075022760182183
0.0009025370256087123
0.0008852891346893076
0.0008534372210200194
0.0007998836242579056
0.0007510219874369205
0.0007004847526766873
0.0006425422823688761
0.000574785097770026
0.0005286827333655642
0.0004982957278513577
0.0004749409695366553
0.00043938884383949814
0.0003922111187145505
0.0003463495765644967
0.00032094703437073627
0.0003242001636893189
0.00033248912962571554
0.0003412895728451546
0.00035574037216166575
0.00039528453074854134
0.00043812503735808726
0.00046451451113075184
0.00047685396788520217
0.0004909345878266525
0.000519615426394569
0.0005621501392395226
0.0006065439576487688
0.0006444126189463308
0.0006596757372850838
0.0006444912649598945
0.0006135086683627889
0.0005867327349577507
0.0005816694616679517
0.000596378657605379
0.0006145245960902154
0.0006159274112441522
0.0005764955436928468
0.0004985995686419361
0.0004074146389997285
0.00032706705609679827
0.00027231197024585476
0.0002477722461272743
0.00024168870436092524
0.0002255950905002746
0.00017329843513153094
9.420671553049544e-05
1.451265629855413e-05
-5.417004975706509e-05
-0.00012063127940375833
-0.0001926860458384385
-0.00025591317379259433
-0.00029116561088403305
-0.0003013045285318949
-0.0003178749524531816
-0.00036672842771099014
-0.0004311025135817156
-0.0004698886991241411
-0.0004600838951789261
-0.0004140141091742937
-0.0003477699261489348
-0.00027591724663729336
-0.00021051995686850332
-0.0001439978490286437
-5.528733941458961e-05
5.5869624496301497e-05
0.00013479017733241766
0.0001073283748131839
0.00024878267219422424
0.0004756196343815231
0.0006592544355518031
0.0008472447868077289
0.001092955379395412
0.0013973277513458133
0.0017273271557908382
0.0020585001068041497
0.002388338017510722
0.002724669920438988
0.003059951774966191
0.0033693831608707894
0.003645774765400275
0.003916241136814047
0.004203899371384464
0.004495153563387219
0.004758441462348866
0.0049773285664534124
0.005160016000499072
0.0053077867571675935
0.005401867290115771
0.005431125976814926
0.00542683881563771
0.0054398197559052015
0.005479642993610528
0.005519031858605006
0.0055304694226760796
0.005521442808166373
0.005505592317644429
0.005465701116233929
0.005374334949682003
0.005251611636823062
0.005163300513336866
0.005144201394320612
0.005159967901982153
0.005149562168845498
0.005099204690614948
0.005027881347056286
0.0049428394867858235
0.004812734289629174
0.004619507818102468
0.004433828737803057
0.004340332218982289
0.004328484944958045
0.00432930143904931
0.004277027835851134
0.004188916013905498
0.00407350575440018
0.0038713683858764857
0.003598936373645579
0.0034789015978818143
0.0034914784639220042
0.003448562104205989
0.0033485672807518387
0.0032393628988983602
0.003139121662382013
0.003048331825279033
0.002891310694504685
0.002571924102078803
0.0022651563076088402
0.002245472842775709
0.0023236720401075693
0.0023085032735248373
0.002230939610377391
0.002153327129337401
0.002031961362034517
0.0018854893055137171
0.00137721241565481
0.0014845484682189545
0.001338582424426103
0.0013135587609503353
0.00133057768688925
0.0013088124766547568
0.0012102017315139654
0.0011768923532742429
0.0011809356778417158
0.0007327460176093563
0.0008390698299091635
0.0007436364594584658
0.0006910979003936148
0.0005862923554105886
0.0005684418370865209
0.0004691422871735338
0.00043076927914552626
0.0005309315899143616
0.00044013228512067087
0.0003656826864907764
0.0003016846157253891
0.00024947868541970203
0.0002194521132977543
0.0002597103482909871
-4.8317228020076756e-05
0.00024795483549382906
-2.5527158835016606e-06
0.0003235815505343224
0.00011363910083499244
0.0005439669866259888
0.0003441707273563734
0.000753460825025541
0.0006056306945159769
0.0010136396281892619
0.0009201106752061454
0.0013288807277246728
0.0012705932432975971
0.0017793732162834784
0.0019930652250853874
0.0023017890116151444
0.00260200334911974
0.0028909249488496404
0.0031458007022719284
0.0034103997020583734
0.0036934296761856524
0.003976852091077315
0.004273308609194317
0.004571717047207231
0.004862814455902131
0.004921233205778846
0.004833596562895548
0.004913628908567484
0.004772028658803586
0.004434251143460746
0.003752030088371874
0.002950023728330643
0.0020772565467037075
0.0003692394685417934
-0.0016328966077779833
-0.0030795550483576715
-0.004471444490130752
-0.005937334142422669
-0.007394945123150752
-0.008706817725492774
-0.009122371761838674
-0.009783108921531967
-0.00990526527607649
-0.010363343737341992
-0.010724063376017385
-0.010707820279840904
-0.010407791540112038
-0.010155299883987204
-0.009806107751115787
-0.00948352679471009
-0.009206053718667695
-0.008932188141396983
-0.008549826439725189
-0.008230520541710595
-0.007891878996830522
-0.007460607914335625
-0.007297919500985592
-0.00663945993602186
-0.006576425856971648
-0.0059416388466079235
-0.005883930455730977
-0.005318227559619521
-0.0052896618517138064
-0.004767412836102784
-0.004750231958581267
-0.004293190762536554
-0.004445820338113215
-0.003948555233504328
-0.004086417698767807
-0.003648616679066288
-0.003797876818095502
-0.003531270671072333
-0.003488700473623871
-0.003540395259720273
-0.003426737527608546
-0.003446342160484526
-0.0034050739989587267
-0.0034337142217988844
-0.003387972659275285
-0.0034109781787808216
-0.003373317146871648
-0.003378162373461297
-0.003263600794224898
-0.003440456471699864
-0.0032452394081908956
-0.0032858081643883015
-0.003298948053243767
-0.003391017104226205
-0.0035821136388654155
-0.0036550081039889437
-0.0037648082569975124
-0.0038706317896924666
-0.00384447631836863
-0.003957843112968165
-0.003995413997716949
-0.004112875079603767
-0.004201660656285982
-0.004348801776961393
-0.0044529856902356755
-0.00447956743563995
-0.004559047725016025
-0.004691526598210428
-0.0048748160055179
-0.00502627511830515
-0.005135406188176968
-0.00523775603562855
-0.005345669465396293
-0.005482625249331537
-0.005605452408139307
-0.005634469691281867
-0.005646543396265195
-0.005683456358118527
-0.005849801796251891
-0.006014007410471782
-0.006126777302601878
-0.006236027802895978
-0.006344295700413512
-0.006411505469729848
-0.006439848132326056
-0.0064574436990899094
-0.006527445467889382
-0.006626473317533639
-0.006702537080346669
-0.006763562496126909
-0.006826083374758185
-0.006880401379342684
-0.006914305189467857
-0.006932876686207537
-0.006954728490946886
-0.006993846957219071
-0.007038322314501075
-0.007087310898144453
-0.007151570714212524
-0.007234751966173216
-0.007331140103999257
-0.007440463834955471
-0.007559925642859255
-0.007687924072686086
-0.007811944701169316
-0.007921206212372299
-0.008001563679555552
-0.008037482008891235
-0.008020242827470034
-0.00794470701264739
-0.007810460143308541
-0.007617052506955691
-0.007366706736701609
-0.0070600777673722765
-0.006701518121180151
-0.006299525331426335
-0.0058656235308593985
-0.005410792613797033
-0.004949699033523876
-0.004491110898342738
-0.0040437611937267776
-0.0036107342066724144
-0.0031888079410847025
-0.0027799845586515114
-0.0023977769781844877
-0.002064248264041828
-0.0017992644534424477
-0.0015773154063810006
-0.0013708287290980694
-0.0011942761565072733
-0.001032594889731732
-0.0008960603563218445
-0.0007864855147927138
-0.0006889922255746147
-0.0005916928548033428
-0.0004937774527845089
-0.00040014516342708385
-0.00031839789931486
-0.00025887922190775595
-0.00021979711046927225
-0.0001875187529460349
-0.00015029224656523313
-0.00010970693292816912
-7.073201337007965e-05
-3.0284122608775587e-05
1.757110064607182e-05
6.992525761403092e-05
0.00011811889132697711
0.00016510538451325668
0.00021802874570116322
0.00027532991809937435
0.0003302264445402623
0.0003818546449522757
0.00042654764249313107
0.00045308755071248556
0.0004536873348387287
0.00044370124542481547
0.0004375426741802131
0.00042194404370946405
0.0003906303845745279
0.0003615497966005279
0.000349000157908286
0.00034587732959962615
0.00033654831390856347
0.0003164280184209238
0.0003039584292807779
0.00031472010384503467
0.0003310590876514988
0.00033533137666805625
0.000340302539081686
0.00035408959829199774
0.00037586718273998384
0.00039705690996966805
0.00041043305534842575
0.0004274049389114831
0.0004618900270932049
0.0004929813902654815
0.0004974024594168341
0.0004973693763522159
0.0005020949777056348
0.000519136419124986
0.0005327417469486585
0.0005481254565344144
0.000575957615351273
0.0005896473960842469
0.0005737455952148573
0.0005081376083512973
0.0004952621412136768
0.0004975136648761151
0.0004667290573477073
0.00041726448627733994
0.00036555923645831896
0.00032986889488461957
0.00030061362177526076
0.00022043093526202744
7.774579145080109e-05
-2.4941520353767762e-05
-0.00014429427000576107
-0.00021640772731782435
-0.0002929104987667009
-0.00037569103225983835
-0.0004464191338403082
-0.00048304441914259673
-0.0006040972901915889
-0.0006358732136290942
-0.0006947075121680066
-0.0007630269698601516
-0.0007795815317678642
-0.0007796107550888949
-0.0007644007122134192
-0.0006834516565226139
-0.0011162751559762596
-0.0005072199524497516
-0.001080803458823663
-0.0005822511681477212
-0.0010325595857735988
-0.0012313126376978871
-0.0009288708938181251
-0.0007620572921057981
-7.595730044989086e-07
0.006328156454397664
1.78390734335269e-05
0.002605577060050834
8.894157289835164e-05
-0.0031123719476899973
0.0001864529139155666
0.002653697139872913
0.000283457044846798
0.0063787768169082685
0.0003357626856445458
0.002521796500951597
0.00042784990427864085
-0.0005832438436704612
0.0005247426750896101
0.0023171351715320465
0.000615203628237418
0.006369162432937119
0.0007053722630302332
0.0024029041903083173
0.000764019503221622
0.005363897722728184
0.0008127582948159344
0.001916717696234835
0.0008559448022115759
0.006302542084263408
0.0008769152364725926
0.002048596625766723
0.0009158201443820963
-0.001286814476580899
0.0009422970650908145
0.0015351894247875564
0.0009563279019990735
0.006275318867980368
0.0009586056785726098
0.0016961131771210615
0.0009299664824396895
0.0011935932842923461
0.000901652769847424
0.001112922374533165
0.0008668978457394623
0.006282369995733519
0.0008173719197664916
0.001291207810543504
0.0007640039240351857
-0.001623357579188661
0.0006935873216439718
0.0007075188105061058
0.0006317725898505676
0.0063038213579057175
0.0005610454611370785
0.0008569498235031564
0.0005350391802892248
0.005306270606185948
0.000508149628197897
0.00023458709059711913
0.0004781658863483759
0.006251930851071557
0.0004357542345866873
0.0005207287349902806
0.0003877731600604774
-0.0019415516805532528
0.0003422141117606657
-1.1654503238671055e-06
0.0003233689011467092
0.006165287756275867
0.0003269815268763674
0.0001407666179926426
0.00033218378709605305
-0.0007436739068184225
0.00033814576332266737
-0.0002221491866610869
0.00035873568454281013
0.0060733417795715994
0.00040429042996878347
-7.675962744299566e-05
0.0004417120221773268
-0.0023298737970085543
0.0004642873345400718
-0.00041903526741095254
0.00047695054402661013
0.005983797588325364
0.0004947694639047489
-0.0002569898449595919
0.0005263563049774156
0.005331428700096479
0.0005700627695229658
-0.0006215191239472846
0.0006190845981837691
0.005858206888302965
0.0006574080112738765
-0.00043698755745134703
0.0006662772849134993
-0.0025079086339203235
0.0006470792459724663
-0.000779307770635352
0.0006173170991659992
0.005671711408793944
0.0005948228580289808
-0.000884475904097459
0.000595308852421947
0.0006867244958620745
0.0006119800376445598
-0.000759085954052183
0.0006317325758351738
0.005566128762396705
0.0006286336544236701
-0.0009000447090239175
0.0005814585788813244
-0.0027934250317311828
0.0004986520444171447
-0.0008099220719201684
0.0004094692157579501
0.005525329160945543
0.0003323623466371536
-0.0006202775101471996
0.0002826306975883192
0.005369702707364776
0.0002636005070699015
-0.0008385609932950623
0.0002587405889577405
0.005492902515196663
0.00023459240246852744
-0.0005037682927746828
0.00017595784004135226
-0.0028747883403209937
9.87359104852092e-05
-0.0006109129456981569
2.4090211873365445e-05
0.005412791952085673
-4.1504937208745535e-05
-0.0002947808229423426
-0.00010969370370400487
-0.004336502139229928
-0.0001813196606508601
-0.0004202717631291977
-0.0002383653161657804
0.005245729607346844
-0.00026428155115724907
-3.988577066794133e-06
-0.000272151011661985
-0.0029903936634165435
-0.00029537415560515034
-0.0001671045168862425
-0.00035083178662597385
0.00507967055287359
-0.00040974626531886074
2.559125196035715e-05
-0.0004345980498472897
0.005397730065893171
-0.00041388325486621665
2.4942402842613135e-05
-0.00036108349827986057
0.004901592967912347
-0.000290252274673101
0.00012100769084932698
-0.00021859740284343426
-0.00294201749267795
-0.00015439921469564448
0.0001735173200397737
-8.269773362426649e-05
0.0046885426945168915
1.6220369200154258e-05
0.00022050341799747036
0.0001302364965358382
0.0007177996098334067
0.0002051430244421862
0.0002404892839513193
0.00014568953136772113
0.004570385271073697
0.0002746094856180859
0.0005436151767636428
0.0005160945390052486
-0.0029654351834819195
0.0007048817605690666
0.000576101878068673
0.0008888978344788209
0.004298455742570705
0.0011244557962506814
0.0008269605093295631
0.0014238734610381204
0.005318120276114638
0.0017587158869352055
0.0010971425730101573
0.002100597029853135
0.004216595179994129
0.002439210174090924
0.0012257595612702472
0.0027801859192021303
-0.002935847485403388
0.0031219910298717524
0.0011958094019235944
0.0034457912961356886
0.004099311541722227
0.0037355052800391204
0.0012004077068560905
0.0040090847442461
-0.0009430265070581136
0.004293003452172614
0.0012645240317305285
0.0045889223211806685
0.00407089750161081
0.004868468455044751
0.0013221255818257902
0.005105764719147928
-0.00281168453499954
0.005299209919298038
0.0014962269260458416
0.005456304336392078
0.003915319785401912
0.0055679846405828634
0.001755116414455414
0.005617676982613278
-0.006648039546749201
0.005623338330480986
0.0019079678549952
0.005632091934664481
0.003694803772851251
0.005671268726995015
0.002159965513439264
0.0057232710079281775
-0.0028513966506986477
0.005755470863020517
0.0023114665862551055
0.0057568829872547715
0.0033950698623055014
0.005744887481917252
0.0024265185771832074
0.005714974426959181
0.001060607864541312
0.005650146630864359
0.0023828853354566255
0.005544506731389531
0.0033149252581065416
0.005449761037100452
0.0023746814740551563
0.0054220068668775125
-0.0025903622822467482
0.005443752882396298
0.002489249091735002
0.005458400759115768
0.0029566532187118326
0.005423217235045747
0.002772760642665266
0.005359541122118657
0.005121913599409679
0.005275511737689275
0.002904055654576478
0.005165638910646482
0.0027647764373154565
0.005003938491267439
0.0031676606750204893
0.0048151919461943285
-0.002498601707664309
0.004711307564678792
0.00334862062379747
0.004691684586351139
0.0029209497191160544
0.0047043892988486045
0.003500747556494643
0.004674592690390719
0.000900543157386702
0.00458749481568704
0.003649740180400989
0.004475794021786635
0.002785642339872474
0.004298919158062104
0.003787155812611217
0.004067218516967957
-0.0026016202080636616
0.003896564114266631
0.0037892726592995444
0.003885134054217391
0.0025693320728783623
0.0038870254552590146
0.003855368201609926
0.0037911660466387258
0.004930367998750476
0.003687168423993899
0.004071904827966987
0.003585355921668721
0.0023457761250359243
0.0034807481747098374
0.004226841576054845
0.003297156562337646
-0.002235071861283566
0.003081694521597103
0.004430913012750562
0.002809134268005947
0.002048396291613814
0.0027022626117501093
0.004583399213811864
0.0027281102680109656
-0.0030856918212816627
0.002753678657568284
0.0047060342331449265
0.0026726409541618095
0.0016507577835673153
0.0025844666753746803
0.004743504342391333
0.0024425566565913657
-0.0017070407714259179
0.0022656687405870463
0.004772575941154959
0.0020562965810160313
0.0016655331396103028
0.0018482519881667951
0.004813626836432846
0.0017413390623852616
0.004764152527834412
0.0017050303449739714
0.0049513566297198965
0.0017325969826817703
0.0013207683836093625
0.0017317048398489453
0.005151803733513365
0.001636529692063594
0.0023880907194621997
0.00156248543288249
0.005311962243203761
0.0014624878214988006
0.0012681533789119744
0.001335628601301593
0.005433067251777455
0.001143285937373636
0.001429742501936828
0.001089996465676637
0.005542368341121848
0.0009477900423427911
0.0010682588257675933
0.0009168749164432384
0.005633940347812444
0.0008139563560827009
-0.001776006927187511
0.0007805928640851337
0.005684280252644369
0.0007952670289405201
0.0012532305277138673
0.0008157933434695703
0.00566798631930555
0.0008348095667796031
0.0045034724605270225
0.0006578492616693696
0.005668958181562679
0.0006565961373081465
0.001154940958627397
0.0005011902409340506
0.0057216480203850385
0.0005350941091029866
0.0019630123445110786
0.00039522585456285974
0.00583836226253315
0.00042683552418502674
0.0010001002908727279
0.000278401022258221
0.005932885181153062
0.0004591715217068052
-0.001428275175213902
0.00037447648688439413
0.00599004757536396
0.000610638160759026
0.0005307634246262093
0.0005691725535435675
0.006033644015007484
0.0007995411901798931
-0.0017216529495432335
0.0007353143533510187
0.00606112565666766
0.0010143325536085368
0.0004151903579778212
0.0009386021823488927
0.0060680708799607935
0.0012375447330761208
0.004410605782944132
0.001184413677082391
0.006033901029043098
0.0015326322688554344
-2.8713692551289605e-05
0.0016690706481826247
0.005992415566554374
0.0018467330387387836
-0.006815354512303292
0.0021227543673580334
0.005973053725360952
0.0023102331020003614
-0.00012914511679048952
0.0026369416231354866
0.005980230826646148
0.0027673525351540923
0.0013891165779220682
0.00304380554021728
0.005963930472272238
0.003169993634877137
-0.00017092245430601067
0.0034425264761932875
0.00589690764709947
0.0035616592751182893
-0.0016072651975083969
0.003830994428429384
0.005783436866529431
0.003856300950828757
-8.934835404686854e-05
0.0038535731905566736
0.005631345646942482
0.0037252899717447065
0.0039246198495935004
0.003870575402107873
0.005439117312417875
0.003573532635289343
-0.0001742823085140705
0.0033751168506220546
0.00519696215834853
0.002810214698904679
-0.0013953177371347943
0.0020079198594717923
0.004918941832282382
0.0012221823340099454
-0.00019327261446539423
-6.330750969624931e-05
0.004631616743108911
-0.0018419269339878552
-0.0111273432582661
-0.003104264883058952
0.00435163174657613
-0.004337707934682407
1.631614081019861e-05
-0.005650639044413571
0.004062177111723403
-0.006851789223629416
-0.0014180441876257492
-0.007852356580483612
0.0037467699141924046
-0.008585382385464935
-0.000649401835383093
-0.009205311250100623
0.0034047693245964944
-0.00930794186581968
0.003798443102188111
-0.009494366390655887
0.0030531717315653026
-0.009738522730509746
-0.0010023906691787449
-0.009564223081493975
0.002703487051496167
-0.009463466290191876
-0.00113215782257747
-0.009070616784271575
0.0023547144958877904
-0.008864525726572646
-0.0012686399216513542
-0.008573963552326811
0.0020058638807886634
-0.008236706695605337
0.0018468439133916509
-0.008035754407017221
0.00166670789971844
-0.007771570633934909
-0.0013026121098136932
-0.007413204122660263
0.0013617222200610988
-0.0071280688118376834
-0.0003263605123913248
-0.006806533981669724
0.0011085435890963032
-0.006489611895511835
0.000930651462669911
-0.006110152589869586
0.0008995330541148172
-0.005817244306759491
0.0037063055942725028
-0.005456300041698321
0.0007015068601142824
-0.005168105288486546
-0.0014833281939013818
-0.004874570315761793
0.0004488178959600716
-0.004617080552508745