# vtk DataFile Version 1.0
GRUMMP topologically 2D mesh
ASCII

DATASET UNSTRUCTURED_GRID
POINTS 6176 float
  1.0000000000000000   0.0000000000000000   0.0000000000000000
  0.9979736161243241   0.0002872981906159   0.0000000000000000
  0.9959038003591104   0.0005818082753016   0.0000000000000000
  0.9937894604158818   0.0008826109490225   0.0000000000000000
  0.9916311447855282   0.0011889740049165   0.0000000000000000
  0.9894256878168368   0.0015011074645448   0.0000000000000000
  0.9871732566523234   0.0018189104108560   0.0000000000000000
  0.9848739492731372   0.0021423104928037   0.0000000000000000
  0.9825241245750710   0.0024717658271048   0.0000000000000000
  0.9801244133260449   0.0028071825305054   0.0000000000000000
  0.9776732769852096   0.0031487906039340   0.0000000000000000
  0.9751690039483889   0.0034968357351786   0.0000000000000000
  0.9726117072730877   0.0038512643819321   0.0000000000000000
  0.9700001180350898   0.0042121148976419   0.0000000000000000
  0.9673332227148538   0.0045793859121594   0.0000000000000000
  0.9646079236541195   0.0049533708962095   0.0000000000000000
  0.9618249648196705   0.0053338679490647   0.0000000000000000
  0.9589807878895711   0.0057213439443832   0.0000000000000000
  0.9560767311296049   0.0061156062701256   0.0000000000000000
  0.9531120216710255   0.0065167463399167   0.0000000000000000
  0.9500819018783057   0.0069253778138591   0.0000000000000000
  0.9469876484068450   0.0073412143029309   0.0000000000000000
  0.9438286210030068   0.0077641908681895   0.0000000000000000
  0.9406001269296587   0.0081947829660712   0.0000000000000000
  0.9373041277084813   0.0086325757434285   0.0000000000000000
  0.9339368121646437   0.0090779560824189   0.0000000000000000
  0.9304976431076690   0.0095309377793780   0.0000000000000000
  0.9269838874379289   0.0099918267186165   0.0000000000000000
  0.9233965242394278   0.0104604374002928   0.0000000000000000
  0.9197323684717913   0.0109371203977286   0.0000000000000000
  0.9159901296799260   0.0114219111797446   0.0000000000000000
  0.9121662515702946   0.0119150917142392   0.0000000000000000
  0.9082612640703632   0.0124164093968364   0.0000000000000000
  0.9042711890176098   0.0129261849544228   0.0000000000000000
  0.9001985925103467   0.0134439182275261   0.0000000000000000
  0.8960367883853674   0.0139703538547480   0.0000000000000000
  0.8917881131106570   0.0145051006126241   0.0000000000000000
  0.8874465968544013   0.0150488093430172   0.0000000000000000
  0.8830132689405343   0.0156012428338051   0.0000000000000000
  0.8784843643309772   0.0161627200549514   0.0000000000000000
  0.8738585592690924   0.0167332093564690   0.0000000000000000
  0.8691331845657406   0.0173128340473851   0.0000000000000000
  0.8643080629784704   0.0179014022230632   0.0000000000000000
  0.8593790220315882   0.0184992057974382   0.0000000000000000
  0.8543443022105112   0.0191062525475961   0.0000000000000000
  0.8492020742372332   0.0197225542022908   0.0000000000000000
  0.8439504592998461   0.0203481184762133   0.0000000000000000
  0.8385847225217766   0.0209832807547837   0.0000000000000000
  0.8331043690503205   0.0216278714070098   0.0000000000000000
  0.8275075883744546   0.0222818740978654   0.0000000000000000
  0.8217896079901662   0.0229456038551552   0.0000000000000000
  0.8159499389768221   0.0236188617887649   0.0000000000000000
  0.8099850870934132   0.0243017702717010   0.0000000000000000
  0.8038929332928342   0.0249942623102002   0.0000000000000000
  0.7976697970229181   0.0256964297179088   0.0000000000000000
  0.7913134730328051   0.0264081777898121   0.0000000000000000
  0.7848218596203610   0.0271293903098903   0.0000000000000000
  0.7781898173908960   0.0278602762976724   0.0000000000000000
  0.7714169256365310   0.0286005013921829   0.0000000000000000
  0.7644979701754163   0.0293502351726533   0.0000000000000000
  0.7574308659438134   0.0301093068082177   0.0000000000000000
  0.7502135053150701   0.0308775557618342   0.0000000000000000
  0.7428404612557281   0.0316551512399728   0.0000000000000000
  0.7353096164115749   0.0324418730798164   0.0000000000000000
  0.7276172963491144   0.0332375368705936   0.0000000000000000
  0.7197598859172740   0.0340418579688506   0.0000000000000000
  0.7117355290536627   0.0348543282856948   0.0000000000000000
  0.7035389878799579   0.0356747811793425   0.0000000000000000
  0.6951650952820780   0.0365031090698871   0.0000000000000000
  0.6866122709923126   0.0373388258653197   0.0000000000000000
  0.6778754950330185   0.0381817369178559   0.0000000000000000
  0.6689534383202176   0.0390312029136988   0.0000000000000000
  0.6598376964403885   0.0398871771799410   0.0000000000000000
  0.6505290121117546   0.0407486821288951   0.0000000000000000
  0.6410191910005383   0.0416153892989160   0.0000000000000000
  0.6313056496470314   0.0424862165552765   0.0000000000000000
  0.6213823079172336   0.0433602824420315   0.0000000000000000
  0.6112489281649386   0.0442362457646169   0.0000000000000000
  0.6008963123926909   0.0451137308907019   0.0000000000000000
  0.5903211292528141   0.0459917803130241   0.0000000000000000
  0.5795184839365645   0.0468692540951747   0.0000000000000000
  0.5684857150099230   0.0477443424041717   0.0000000000000000
  0.5572148862675538   0.0486154402631608   0.0000000000000000
  0.5457024491672809   0.0494805599680832   0.0000000000000000
  0.5339780836677636   0.0503353194116202   0.0000000000000000
  0.5219860728183490   0.0511813660693644   0.0000000000000000
  0.5101253307512127   0.0519891081313360   0.0000000000000000
  0.4985043971600128   0.0527514649709832   0.0000000000000000
  0.4871181100865982   0.0534694955937708   0.0000000000000000
  0.4759663238182478   0.0541439373921026   0.0000000000000000
  0.4650424897306392   0.0547759224024376   0.0000000000000000
  0.4543414694194311   0.0553665338532900   0.0000000000000000
  0.4438615277983380   0.0559167464857066   0.0000000000000000
  0.4335966445555638   0.0564277439227250   0.0000000000000000
  0.4235422171719039   0.0569005367499369   0.0000000000000000
  0.4136931783754329   0.0573360485787389   0.0000000000000000
  0.4040479201781875   0.0577350333573017   0.0000000000000000
  0.3946007843384192   0.0580984587592611   0.0000000000000000
  0.3853459130056055   0.0584273588583778   0.0000000000000000
  0.3762828394437238   0.0587225582688298   0.0000000000000000
  0.3674052759622001   0.0589850521268143   0.0000000000000000
  0.3587104110044708   0.0592156767487264   0.0000000000000000
  0.3501952433465900   0.0594152538281565   0.0000000000000000
  0.3418548081050912   0.0595846279097528   0.0000000000000000
  0.3336858663230149   0.0597246577421592   0.0000000000000000
  0.3256868701986138   0.0598362486465025   0.0000000000000000
  0.3178507769372301   0.0599203474438374   0.0000000000000000
  0.3101776523444911   0.0599777679649948   0.0000000000000000
  0.3026620994593082   0.0600092896252224   0.0000000000000000
  0.2953022098091474   0.0600156089816429   0.0000000000000000
  0.2880942515540157   0.0599974067416477   0.0000000000000000
  0.2810344582773878   0.0599553507162620   0.0000000000000000
  0.2741224198462300   0.0598902308958287   0.0000000000000000
  0.2673508102792782   0.0598027829062179   0.0000000000000000
  0.2607208372897423   0.0596938009430880   0.0000000000000000
  0.2542268737219818   0.0595639532054747   0.0000000000000000
  0.2478699323930078   0.0594139942796022   0.0000000000000000
  0.2416426526986943   0.0592444560641495   0.0000000000000000
  0.2355443386744786   0.0590559928562533   0.0000000000000000
  0.2295742285057687   0.0588492600763349   0.0000000000000000
  0.2237267309732288   0.0586247739586633   0.0000000000000000
  0.2180011540540604   0.0583832555000465   0.0000000000000000
  0.2123936096745636   0.0581252700988444   0.0000000000000000
  0.2069018249031851   0.0578514118247249   0.0000000000000000
  0.2015265925874962   0.0575624139311738   0.0000000000000000
  0.1962639217171782   0.0572587327640815   0.0000000000000000
  0.1911098627978642   0.0569407701058159   0.0000000000000000
  0.1860635373512509   0.0566090833477142   0.0000000000000000
  0.1811225555455632   0.0562641183158228   0.0000000000000000
  0.1762831066659017   0.0559062017034564   0.0000000000000000
  0.1715472965099615   0.0555361405439852   0.0000000000000000
  0.1669099315072494   0.0551541804881659   0.0000000000000000
  0.1623702175183220   0.0547608759938091   0.0000000000000000
  0.1579259317985442   0.0543566416724963   0.0000000000000000
  0.1535748664842349   0.0539418626674859   0.0000000000000000
  0.1493147619729656   0.0535168899310313   0.0000000000000000
  0.1451447283274916   0.0530821904592715   0.0000000000000000
  0.1410625235604109   0.0526380756497570   0.0000000000000000
  0.1370659530359299   0.0521848322503466   0.0000000000000000
  0.1331567814638518   0.0517231967360234   0.0000000000000000
  0.1293276562313525   0.0512528455259629   0.0000000000000000
  0.1255804504092525   0.0507745502773552   0.0000000000000000
  0.1219131281255899   0.0502885988465475   0.0000000000000000
  0.1183237015509818   0.0497952534010120   0.0000000000000000
  0.1148102318092792   0.0492947513229479   0.0000000000000000
  0.1113720175725520   0.0487874812015910   0.0000000000000000
  0.1080070759532941   0.0482736140267307   0.0000000000000000
  0.1047146335147149   0.0477534816268928   0.0000000000000000
  0.1014927513745349   0.0472272179600503   0.0000000000000000
  0.0983395479756496   0.0466949369878610   0.0000000000000000
  0.0952554508934213   0.0461571322873805   0.0000000000000000
  0.0922363866432952   0.0456135046927440   0.0000000000000000
  0.0892828700951544   0.0450645654218522   0.0000000000000000
  0.0863942718297865   0.0445106297655928   0.0000000000000000
  0.0835678320075330   0.0439515803137779   0.0000000000000000
  0.0808019575920066   0.0433874837688950   0.0000000000000000
  0.0780971710598979   0.0428188278852694   0.0000000000000000
[...]
POINT_DATA 6176
SCALARS continuity float
LOOKUP_TABLE default
0.0011053839746193784
-6.082342466903717e-05
0.00031054713241676895
0.0001286186530898169
0.0002654813042745495
0.0004263997027659594
0.0006060257989463008
0.0008401369422480255
0.001032175916133832
0.00117846416836317
0.001325531264342861
0.0014464270577818968
0.0015398099709861934
0.0016553003151962226
0.0017478981152245256
0.00185866564052603
0.0020349996879393834
0.002188077754144102
0.0023021082509811024
0.0023996391608503533
0.0024527605229246957
0.0025235703177514616
0.002588355159346723
0.002631751864704701
0.0027109809949214607
0.002806351918777115
0.002884104177729324
0.0029210859948380565
0.0029575807433619046
0.002996384194968256
0.0030428356575461987
0.00309075368739281
0.003132080382296785
0.0031677178114269825
0.0032084114022664294
0.0032547850511165564
0.003304737197587685
0.003336787617897422
0.0033650005742209294
0.0033982984892323956
0.003439989555635903
0.003485699096015048
0.003540560666685335
0.0036061617492406466
0.0036762906901918464
0.003741737695996919
0.0038049283003751457
0.0038713372958447596
0.003941435237403603
0.004010465534159765
0.004072620582229557
0.004132891098083198
0.004203993923722002
0.004286655445490163
0.0043693625533674394
0.004446524337015454
0.004518174957381776
0.004583015468190213
0.004634178453980472
0.004672413849028357
0.00471661249516974
0.004772660559324313
0.004828575347732292
0.004874744454469683
0.004914151512683779
0.004953894123994495
0.004991708384285351
0.005022629776381933
0.005045579402334386
0.00506397131069413
0.005083982201470983
0.005108528375742691
0.005124167795779815
0.005120348528125755
0.005094909027106035
0.005054130837540834
0.004996097896905038
0.004923063710379694
0.004841158160163863
0.004755777180244375
0.0046592074872008294
0.004542637994504135
0.004398032338286047
0.004220196616104778
0.004005255558332658
0.0037331801197450017
0.003626762150424435
0.0035052260337521215
0.0033010860294569178
0.0030755295880142653
0.0028607755807985333
0.0026591658982738787
0.0024615530603069773
0.002273251641431161
0.0021007142777730256
0.0019493398769575261
0.001817229282738611
0.0017054498256613379
0.001619685336852271
0.0015642499048852928
0.0015354371541307075
0.0015261609670682637
0.001532095345306621
0.0015621333827994062
0.0016199940810982816
0.0016991750061721275
0.001791394615054886
0.0018980132215153044
0.0020222244298250033
0.0021540916311505467
0.002271811935679146
0.002365931940789502
0.0024416094601184104
0.002509725239822316
0.0025694021055786783
0.0026135862933214546
0.002652260617329362
0.002699111767293023
0.0027381029917705846
0.0027444505929587865
0.002714060206057204
0.0026686020636999806
0.0026249013925395744
0.00257900862521832
0.002526676880780449
0.002486441288030213
0.0024909667681205887
0.0025052072742572902
0.002456639992770724
0.0023559338745815506
0.0022357220825906924
0.0021428980215531285
0.002046430097655185
0.0019507473732812827
0.0019403340284092194
0.002015592275797015
0.001880856724628663
0.0016430078485087593
0.0015136195934489984
0.0014135893968966575
0.0013124429730421692
0.001201735146589454
0.0010753224246741616
0.0010355442929873718
0.001154430734589035
0.0011691517183217703
0.0010243739911331043
0.0007887201047811333
0.000628367763692025
0.0005089278911102542
0.00038883715652312563
0.00034182060585970236
0.00036730675147917817
0.0004658435458267918
0.0005932264137104026
0.0006434680839272473
0.0007180415177194314
0.0005449089016227934
0.000555495555554966
0.0006277153830070416
0.0006236935230637124
0.0005659881204280928
0.0006952498719394824
0.0009183354567387562
0.0010172458342656064
0.0011949245308122169
0.0014194108454219617
0.001657255353988197
0.0019452470311205465
0.0021503006307112826
0.0023773190877286474
0.0027357905017560105
0.0032350684875544133
0.0037574415221452782
0.0042668641396471476
0.00478609641037591
0.005214763628731564
0.005840461863087569
0.006545697806912665
0.007021139337090053
0.007901513073426718
0.00840925054549665
0.009355297021199072
0.009952294123696567
0.010969771078365595
0.011646897832155188
0.012816990922888852
0.013554923657835517
0.014823118800623508
0.01563679301040191
0.017119235107027574
0.018314609167335648
0.0194509399820672
0.0206811363491403
0.021816001419899363
0.022989575661867646
0.02407340601322513
0.025138103884855132
0.026009947551847122
0.026801296451641952
0.027314213096905546
0.027654342243701554
0.027834113343854276
0.02747132327537442
0.027330989256964137
0.025810759207909564
0.02411159486716411
0.02112948975402274
0.017720742838346383
0.013529244985556585
0.008600619230044775
0.0037724249942281004
-0.0010914844346109297
-0.005247290064255215
-0.009144866015591545
-0.012463338946979749
-0.01439300247568608
-0.017561162509923817
-0.017275140486358722
-0.018879286402467704
-0.019229910245756945
-0.018893733461304206
-0.01843820284375812
-0.017991686227557865
-0.017193393494865476
-0.01637605100615736
-0.015199963664352856
-0.01392374786210585
-0.012829373018732044
-0.011630921604138561
-0.010752861125723994
-0.009681659707329817
-0.008864619388282494
-0.007414915969169191
-0.007298876258680917
-0.006052521003641697
-0.005938422259181312
-0.004770635703442263
-0.0046214243864200685
-0.0035506892132851084
-0.0034384314027841893
-0.0025418397649990486
-0.002478635109317104
-0.0015469127718749285
-0.0016436675162019535
-0.0007935937510380703
-0.0009159400854428404
-0.00010648114903960288
-8.972460408359514e-05
0.00021747901676671055
0.000599336616538587
0.000795102238322079
0.0010566569808539532
0.0012900335014626445
0.0014716389756298843
0.0016054059951402413
0.0017238479818529227
0.0017494598643721763
0.0017735083271560423
0.0016014124422447406
0.0018362496631426928
0.0014522497540130168
0.0013919327501103434
0.0013015188361399106
0.001280643468387926
0.0013765922035314099
0.0012818941132829453
0.0013170237249951237
0.0013788406061553261
0.0012037744120903713
0.001259148364684555
0.001072643199598593
0.0009717642914326475
0.0008069964500915476
0.0007054986643080754
0.0005778198149963082
0.00036952975937948253
0.0002300271949167407
0.000168067648525652
0.00014765994303351233
7.161339801959213e-05
-5.928397254613772e-05
-0.0001954963259831855
-0.00034675028278752766
-0.00046711584360850645
-0.0005717161176413984
-0.0007863387357402573
-0.0010111943611174558
-0.001222597140766132
-0.0012452981870773947
-0.0012795444828064345
-0.0013844816138494761
-0.001487834917187208
-0.001569815404860679
-0.0016620182210706593
-0.0017688341116397217
-0.001893323266436411
-0.0019704242997626038
-0.0020309434146855757
-0.002115160593106306
-0.0021934195228397934
-0.002245346214954982
-0.002267807153981195
-0.002270782944946096
-0.002272397003883404
-0.002277582524072731
-0.002287234816863571
-0.002299352438944551
-0.0022973305909363946
-0.002271813226240168
-0.00223424366857552
-0.0021872760587223383
-0.002119952417637126
-0.0020277046963681606
-0.0019248170338927106
-0.0018333052509053802
-0.0017564555222027915
-0.0016762353089186698
-0.0015629061087846724
-0.0013987669480007494
-0.001180016229759063
-0.0009040904032245945
-0.0005824497134116698
-0.00023655607237304093
0.00011824544649633379
0.0004854420328589732
0.0008668882022957706
0.0012560598010079322
0.001638518869054551
0.0020023554826411926
0.002333194437649046
0.0026278516360522613
0.002885786887934606
0.0031018200622809685
0.0032642269976154766
0.0033677414321849576
0.003450302101010685
0.003578083271046335
0.0036987686472127863
0.003483376400740407
0.003244976043777054
0.003023083848900489
0.0027924837007517966
0.0025353758837649014
0.0022583557909850367
0.0019742085522418567
0.0016854749610104938
0.0013984443585806088
0.001120305925303706
0.0008448626262519975
0.0005675350424776298
0.00030138806074578637
5.883795764683498e-05
-0.00017420163333802674
-0.00040917819944861496
-0.0006373065905059167
-0.0008414309932311856
-0.0010124975278469396
-0.0011605213143005043
-0.001295325060654993
-0.0014053817337180703
-0.0014821149098375058
-0.0015447224063213862
-0.001612418546273613
-0.0016860475225509814
-0.001749660084342461
-0.0018065969061793442
-0.0018680261013494074
-0.001920810323069997
-0.0019470559643834414
-0.0019695679820692295
-0.0020071292474897755
-0.002044065197013386
-0.0020589521210339656
-0.002049826257055159
-0.0020347669081889536
-0.002029497865105866
-0.002026649571085428
-0.002006939507380311
-0.001970458854260197
-0.0019363620408371699
-0.001925347606846702
-0.001927335360234148
-0.0019238195046333366
-0.0019167704680406001
-0.0019164105974751931
-0.001920162398017632
-0.0019170854173732898
-0.0018941531850753847
-0.0018487588992262426
-0.0018090488591925983
-0.0017893905478176845
-0.0017776835172101384
-0.001752034917892659
-0.0017095263851164453
-0.0016430140147848074
-0.0015526765254140268
-0.001415107144878086
-0.0013050760145178492
-0.0012164232067999135
-0.001103357449766748
-0.0009773488195327178
-0.0008525023360506216
-0.0007329952910270258
-0.0006101656707652663
-0.00047937993708023393
-0.00031717456205628106
-0.00017071677516488037
-1.0447948117704323e-05
8.350342338176689e-05
0.0001674362931513684
0.0002479033636074933
0.00033166590523439214
0.00037535117331800714
0.0004725438300655488
0.0005423517330721887
0.0006203826487470033
0.0007357402431569539
0.000920221260392173
0.0009973510975614798
0.00108907521305359
0.001106560408801194
0.0012080152804551827
0.00029578969969274626
0.0009026905082086341
0.0003101674372992977
0.0006089092595710175
0.0008426724001614017
0.0010000833327187318
0.0011568710332659706
-0.00017402950893181745
0.00155028495291748
-3.6453782258914374e-05
0.022627107867718217
0.0001520789784422567
-0.0010272226853518143
0.00031566770254599886
0.022721135758254647
0.0004632318205197887
0.0016152948048013085
0.0006584175584267555
0.02353683872358332
0.0008188969294588971
0.015834488415882187
0.0010321900776512302
0.02394318856754535
0.001191022834692286
0.001694546065281696
0.0013427994728702575
0.024324495924323356
0.001463129579237472
0.0003123224553835442
0.0015809911199554055
0.023774735025863396
0.0016887607157020051
0.0018121885888758222
0.0017810050836207776
0.023837473941453403
0.0018958042464264544
0.014097617490682954
0.0020433619307735334
0.02290259999469976
0.0021925708880164347
0.0018874602838197024
0.002336403909391488
0.022519896795140323
0.0024145914640605237
-1.1954569278653868e-05
0.002486076047556853
0.021393656300281772
0.0025585291006998186
0.0019573069694219618
0.0026194041737247213
0.020563545484313647
0.002672917709883306
0.012405662618168056
0.002778984844938765
0.019596282139441455
0.002863249881834931
0.001981861266335421
0.002934397894091081
0.01847491036634719
0.0029600458501540185
0.00026921482631307736
0.0029950938746563342
0.017341247380571197
0.0030367544458849913
0.00201583598193981
0.0030830328639281407
0.016208113571373896
0.0031271677600746644
0.010954701186535229
0.003163400580446263
0.015317044305150344
0.0032019467570114416
0.0020369718884132096
0.0032410170783822288
0.014309621842620447
0.003291401279639467
-0.000566475503398008
0.0033336872922970356
0.01348434604168264
0.003360243109546512
0.0020310272881057323
0.0033845426321431338
0.012433450792189903
0.0034180674350164633
0.009677149775093534
0.0034586189491339027
0.011665139898269502
0.003505339365485531
0.00199312776615842
0.003566859080440985
0.010672864989815452
0.0036350037075870414
0.0003552315682062824
0.0037040978779605276
0.010085909794037225
0.0037651329268178855
0.0020042592229889424
0.003826291908887753
0.009131582728192724
0.0038928799214986444
0.0081286173474502
0.00396532661268997
0.008692928459392272
0.004032360277630764
0.002008323320349316
0.004094227152463476
0.007558865267674672
0.004160913317632702
-0.00012527285324336849
0.004235916014974073
0.00719380922867676
0.004316029148433227
0.002058161526998512
0.00439443594500822
0.006223643615346289
0.004470810234789978
0.00696992426246055
0.004544968159500623
0.005966863163278289
0.0046075751488371675
0.001954900220525754
0.004654936345785406
0.005170129346690836
0.004696015802064473
0.00028156552980345843
0.004743682020678196
0.004837190907356824
0.004796809817148378
0.0018609082237874234
0.004847324287984177
0.004003104497095308
0.004890265187086192
0.00574445704548779
0.0049325104337222675
0.0036217451716176554
0.004974092410733374
0.001702623010023172
0.005009293105428597
0.002936777038558258
0.005037403199631514
-0.0007518851995301633
0.005060413375212053
0.0026575623090279886
0.005083046231749553
0.0016275900211932478
0.005108213511400674
0.002072726297797488
0.00513188638266316
0.004739473484164101
0.0051410948197765675
0.002063644700523958
0.005131864657644043
0.001537966883272998
0.005106916029824536
0.0015987122341378794
0.005065957811042315
0.00023456777117625144
0.005006794270227016
0.0017153913124364898
0.004933396787686788
0.0014345326338905439
0.004853690551826113
0.0011658904526610431
0.004767711813679589
0.0038531341013383347
0.004666600880461144
0.001165083688834476
0.004546662404734725
0.0014159094226361647
0.004401446918423177
0.0006413012547022059
0.004220374729950789
-0.00025678539181841836
0.003999673987118943
0.00031202995356213
0.003802270504064465
0.001459718499704151
0.0036684181317921897
0.00032983824496612236
0.0035658764795869244
0.002962503797607751
0.0033631811700269476
0.0003502902324186704
0.0031311355229595773
0.0013811759269976838
0.002912422327916036
0.0002549994402285592
0.002709198162676774
0.00013782058802793193
0.002511079436496898
0.0001876230328713525
0.0023196671185386204
0.0013974301189453653
0.002143457253566597
0.0002674594532525757
0.001988830470245596
0.0022162662265449683
0.0018555467977358128
0.00034761283029886945
0.0017404400243543044
0.001203723143756269
0.0016488245803964457
0.0004266741618288878
0.0015876545431264492
-0.00039817750764756943
0.0015555951788102798
0.00027696398577693726
0.0015423799207573041
0.0010694510388047607
0.0015456865226824053
5.656683894849164e-05
0.0015724266851278607
0.001996975614338131
0.0016267179216596266
6.800336003967226e-06
0.0017070156874467268
0.0008859786321769131
0.0017977614243305236
1.4021636639983468e-05
0.0018993993590516603
-0.006345951755199118
0.0020174963114773068
-4.282579391587249e-06
0.002145724040314027
0.0008044717097749717
0.002263931647287994
-1.3676458884976115e-05
0.0023622648055957336
0.001353440959521189
0.0024412287113273895
9.709862295270342e-05
0.0025127973750652065
0.0008017155260175601
0.002576643821104157
0.00029564254294157
0.0026264823521760816
0.005154421841406533
0.002662336156329367
0.0005369948092725701
0.0026975794079879085
0.0007938443595343958
0.0027329485284901824
0.0006741742849470327
0.002742751320123624
0.001028301184665174
0.002720193211636741
0.0005690946282230348
0.002676142222453387
0.0006104396594340698
0.002633424111385141
0.0006458749967087193
0.002593545657894832
0.00016431649660816937
0.0025480737307461533
0.0006624927046339515
0.002506262102815857
0.0006344407280613379
0.0024931391849735405
0.0006578752938927014
0.0024887991846534395
0.000820446232156418
0.002431368246406541
0.0007604711752583403
0.002345403801807372
0.0004892218861289157
0.002233939802432029
0.0008710413133885819
0.0021378375686760876
-0.0003401978416682424
0.0020434232198143624
0.0009857613972826635
0.001945946947392524
0.00032233835882706206
0.0019391566522219499
0.0010885960959770265
0.0019660372380130037
0.0007455929759166714
0.0018802770840304342
0.0013311845183985524
0.0016895540172795001
0.00020799376232667318
0.0015077002936286193
0.0014520456375061192
0.0014009479302752956
0.00018055512340276053
0.0012914853328457598
0.0015569075457054968
0.001186730853729544
0.0001190308883030037
0.0010733868443360249
0.001532221537502204
0.0010856217651606817
0.000589736346499038
0.0010921314428865463
0.0015483504662826388
0.0010831402840140755
8.026695013025436e-05
0.0010361780668371912
0.001666783649090886
0.0008067614101381019
-0.001038878296347958
0.0006074772901754353
0.0017639474560639712
0.0004751072757907737
0.00011211615098582093
0.0003404930215984455
0.0019429903114445025
0.00033650319914415645
0.00039606906774058677
0.00034114470803293923
0.002066073320207111
0.0005070664283194523
-5.111144757519518e-05
0.0005914664740166487
0.0022048446013694625
0.0007374888953761084
0.00020759646330272168
0.0008011467646473032
0.002204388106746546
0.0005969412444939979
-0.00019686216682895515
0.0005244186376259869
0.0022146901549415137
0.0005552651366535909
0.016054998547254524
0.0005390092190463626
0.0022303023378865113
0.0005695516635765923
-7.141392212791685e-05
0.0006956882098228982
0.0023110628568895992
0.0007733792294717639
-0.00024047783956199226
0.0010264878530124593
0.002378582378594826
0.0013786805151340907
1.7660344435531946e-05
0.001497541110758369
0.0024298729723949233
0.0018864349547079203
0.0002479446216246331
0.0020528341693887737
0.0024804435993673246
0.0022761768521065424
-0.00013025978674362866
0.0023810100815356513
0.0025463636424576806
0.002612145665248593
0.0003061526438402596
0.003124516957352951
0.0025802453489592748
0.0035933760503866017
-0.0003130645210836326
0.004155902574063151
0.002598300986837076
0.004618018102063356
0.002378331635858267
0.005250380746426779
0.0025725882999498378
0.005905822090387839
-0.0004247440833652893
0.006618467878555726
0.0025619795014331643
0.0071446826511031665
-0.00034458297789717764
0.007950322461120736
0.00254883039366239
0.008519485160180836
-0.00028612660804827947
0.00944691987317233
0.0025122500700441525
0.010021986008399535
-1.7392055521057653e-05
0.010999416761686585
0.002456294537322781
0.011710971282912104
-0.0003273008746597362
0.012807912615085263
0.0023924810282955544
0.013638047078126873
0.0003805386175430932
0.014755746436479953
0.002322208810948878
0.015767161241497754
-0.0004113085623242398
0.016919268098608217
0.0022338810171110396
0.017942362848599597
-0.006580656845187589
0.019014524866936815
0.002123485527858817
0.02024963420194302
-0.0003427285303645535
0.02130262437991844
0.0020013855820309144
0.022339604024683036
-0.00017506280458597757
0.023249650083779536
0.0018927943649647311
0.024108103654396428
-0.00013114801597074457
0.024760125692514307
0.0018018130923812211
0.025157525007636815
-8.638947915817893e-05
0.025346106418020067
0.0017139584634850438
0.025270865654332213
3.841716416922634e-05
0.025084799688193823
0.0016338269881942566
0.024827554720443047
0.0003642927924400951
0.024425842335435464
0.0015780557540003878
0.022998952087940696
-1.987519645103372e-05
0.020761569598772095
0.0015544355853567729
0.01816752595916132
-6.384118398034019e-05
0.015163150990206896
0.0015516387935626359
0.011442925047872072
0.000143083795183957
0.0077969358171643905
0.0015651729749213974
0.004639158876898768
-0.002066421581058993
0.0007253648235902185
0.0015988462222858953
-0.002953808229167709
-9.699929749548368e-05
-0.0062041176262399925
0.0016625634283791474
-0.00900585072930078
3.3857481199157734e-05
-0.011307064829230301
0.0017595759132069636
-0.013390055763425822
5.33481997767032e-05
-0.014633313651570863
0.0018759795138700798
-0.015481999177430109
0.00048449481985655014
-0.016088047208480408
0.0020112049269510627
-0.016293779870778156
0.0002973928897299979
-0.016731730450775254
0.0021662271477827645
-0.016465932115787868
-6.829887665737804e-05
-0.01632981306237934
0.002344504638849894
-0.015634277898854007
0.00038238578728401614
-0.014797811265028495
0.002537403870445197
-0.013834602438497995
-0.00029769708489617405
-0.01264211552969607
0.00273299801823079
-0.011611503684420047
0.00038327792810491384
-0.010726085260261834
0.0029354477878392495
-0.009796589929157188
-0.0003167217885034017
-0.008938815751445265
0.003155901778826139
-0.008143431383919741
0.0023872155575768634
-0.007459853393143024
0.003398054469444748
-0.0067561837385947295
0.00043591396795597146
-0.006172907015732368
0.0036196319260472544
-0.0054807458562596495
0.0007346662251665406
-0.004907180218672109
0.003728822400570486
-0.004252889597713078
-8.140815475478472e-05
-0.0037372610297458485
0.0038923047284770223
-0.003214717008828018
-0.00256670870968031
-0.0028283701749456367
0.004110338155333696
-0.0023487863799575223