# vtk DataFile Version 1.0
GRUMMP topologically 2D mesh
ASCII

DATASET UNSTRUCTURED_GRID
POINTS 6176 float
  1.0000000000000000   0.0000000000000000   0.0000000000000000
  0.9979736161243241   0.0002872981906159   0.0000000000000000
  0.9959038003591104   0.0005818082753016   0.0000000000000000
  0.9937894604158818   0.0008826109490225   0.0000000000000000
  0.9916311447855282   0.0011889740049165   0.0000000000000000
  0.9894256878168368   0.0015011074645448   0.0000000000000000
  0.9871732566523234   0.0018189104108560   0.0000000000000000
  0.9848739492731372   0.0021423104928037   0.0000000000000000
  0.9825241245750710   0.0024717658271048   0.0000000000000000
  0.9801244133260449   0.0028071825305054   0.0000000000000000
  0.9776732769852096   0.0031487906039340   0.0000000000000000
  0.9751690039483889   0.0034968357351786   0.0000000000000000
  0.9726117072730877   0.0038512643819321   0.0000000000000000
  0.9700001180350898   0.0042121148976419   0.0000000000000000
  0.9673332227148538   0.0045793859121594   0.0000000000000000
  0.9646079236541195   0.0049533708962095   0.0000000000000000
  0.9618249648196705   0.0053338679490647   0.0000000000000000
  0.9589807878895711   0.0057213439443832   0.0000000000000000
  0.9560767311296049   0.0061156062701256   0.0000000000000000
  0.9531120216710255   0.0065167463399167   0.0000000000000000
  0.9500819018783057   0.0069253778138591   0.0000000000000000
  0.9469876484068450   0.0073412143029309   0.0000000000000000
  0.9438286210030068   0.0077641908681895   0.0000000000000000
  0.9406001269296587   0.0081947829660712   0.0000000000000000
  0.9373041277084813   0.0086325757434285   0.0000000000000000
  0.9339368121646437   0.0090779560824189   0.0000000000000000
  0.9304976431076690   0.0095309377793780   0.0000000000000000
  0.9269838874379289   0.0099918267186165   0.0000000000000000
  0.9233965242394278   0.0104604374002928   0.0000000000000000
  0.9197323684717913   0.0109371203977286   0.0000000000000000
  0.9159901296799260   0.0114219111797446   0.0000000000000000
  0.9121662515702946   0.0119150917142392   0.0000000000000000
  0.9082612640703632   0.0124164093968364   0.0000000000000000
  0.9042711890176098   0.0129261849544228   0.0000000000000000
  0.9001985925103467   0.0134439182275261   0.0000000000000000
  0.8960367883853674   0.0139703538547480   0.0000000000000000
  0.8917881131106570   0.0145051006126241   0.0000000000000000
  0.8874465968544013   0.0150488093430172   0.0000000000000000
  0.8830132689405343   0.0156012428338051   0.0000000000000000
  0.8784843643309772   0.0161627200549514   0.0000000000000000
  0.8738585592690924   0.0167332093564690   0.0000000000000000
  0.8691331845657406   0.0173128340473851   0.0000000000000000
  0.8643080629784704   0.0179014022230632   0.0000000000000000
  0.8593790220315882   0.0184992057974382   0.0000000000000000
  0.8543443022105112   0.0191062525475961   0.0000000000000000
  0.8492020742372332   0.0197225542022908   0.0000000000000000
  0.8439504592998461   0.0203481184762133   0.0000000000000000
  0.8385847225217766   0.0209832807547837   0.0000000000000000
  0.8331043690503205   0.0216278714070098   0.0000000000000000
  0.8275075883744546   0.0222818740978654   0.0000000000000000
  0.8217896079901662   0.0229456038551552   0.0000000000000000
  0.8159499389768221   0.0236188617887649   0.0000000000000000
  0.8099850870934132   0.0243017702717010   0.0000000000000000
  0.8038929332928342   0.0249942623102002   0.0000000000000000
  0.7976697970229181   0.0256964297179088   0.0000000000000000
  0.7913134730328051   0.0264081777898121   0.0000000000000000
  0.7848218596203610   0.0271293903098903   0.0000000000000000
  0.7781898173908960   0.0278602762976724   0.0000000000000000
  0.7714169256365310   0.0286005013921829   0.0000000000000000
  0.7644979701754163   0.0293502351726533   0.0000000000000000
  0.7574308659438134   0.0301093068082177   0.0000000000000000
  0.7502135053150701   0.0308775557618342   0.0000000000000000
  0.7428404612557281   0.0316551512399728   0.0000000000000000
  0.7353096164115749   0.0324418730798164   0.0000000000000000
  0.7276172963491144   0.0332375368705936   0.0000000000000000
  0.7197598859172740   0.0340418579688506   0.0000000000000000
  0.7117355290536627   0.0348543282856948   0.0000000000000000
  0.7035389878799579   0.0356747811793425   0.0000000000000000
  0.6951650952820780   0.0365031090698871   0.0000000000000000
  0.6866122709923126   0.0373388258653197   0.0000000000000000
  0.6778754950330185   0.0381817369178559   0.0000000000000000
  0.6689534383202176   0.0390312029136988   0.0000000000000000
  0.6598376964403885   0.0398871771799410   0.0000000000000000
  0.6505290121117546   0.0407486821288951   0.0000000000000000
  0.6410191910005383   0.0416153892989160   0.0000000000000000
  0.6313056496470314   0.0424862165552765   0.0000000000000000
  0.6213823079172336   0.0433602824420315   0.0000000000000000
  0.6112489281649386   0.0442362457646169   0.0000000000000000
  0.6008963123926909   0.0451137308907019   0.0000000000000000
  0.5903211292528141   0.0459917803130241   0.0000000000000000
  0.5795184839365645   0.0468692540951747   0.0000000000000000
  0.5684857150099230   0.0477443424041717   0.0000000000000000
  0.5572148862675538   0.0486154402631608   0.0000000000000000
  0.5457024491672809   0.0494805599680832   0.0000000000000000
  0.5339780836677636   0.0503353194116202   0.0000000000000000
  0.5219860728183490   0.0511813660693644   0.0000000000000000
  0.5101253307512127   0.0519891081313360   0.0000000000000000
  0.4985043971600128   0.0527514649709832   0.0000000000000000
  0.4871181100865982   0.0534694955937708   0.0000000000000000
  0.4759663238182478   0.0541439373921026   0.0000000000000000
  0.4650424897306392   0.0547759224024376   0.0000000000000000
  0.4543414694194311   0.0553665338532900   0.0000000000000000
  0.4438615277983380   0.0559167464857066   0.0000000000000000
  0.4335966445555638   0.0564277439227250   0.0000000000000000
  0.4235422171719039   0.0569005367499369   0.0000000000000000
  0.4136931783754329   0.0573360485787389   0.0000000000000000
  0.4040479201781875   0.0577350333573017   0.0000000000000000
  0.3946007843384192   0.0580984587592611   0.0000000000000000
  0.3853459130056055   0.0584273588583778   0.0000000000000000
  0.3762828394437238   0.0587225582688298   0.0000000000000000
  0.3674052759622001   0.0589850521268143   0.0000000000000000
  0.3587104110044708   0.0592156767487264   0.0000000000000000
  0.3501952433465900   0.0594152538281565   0.0000000000000000
  0.3418548081050912   0.0595846279097528   0.0000000000000000
  0.3336858663230149   0.0597246577421592   0.0000000000000000
  0.3256868701986138   0.0598362486465025   0.0000000000000000
  0.3178507769372301   0.0599203474438374   0.0000000000000000
  0.3101776523444911   0.0599777679649948   0.0000000000000000
  0.3026620994593082   0.0600092896252224   0.0000000000000000
  0.2953022098091474   0.0600156089816429   0.0000000000000000
  0.2880942515540157   0.0599974067416477   0.0000000000000000
  0.2810344582773878   0.0599553507162620   0.0000000000000000
  0.2741224198462300   0.0598902308958287   0.0000000000000000
  0.2673508102792782   0.0598027829062179   0.0000000000000000
  0.2607208372897423   0.0596938009430880   0.0000000000000000
  0.2542268737219818   0.0595639532054747   0.0000000000000000
  0.2478699323930078   0.0594139942796022   0.0000000000000000
  0.2416426526986943   0.0592444560641495   0.0000000000000000
  0.2355443386744786   0.0590559928562533   0.0000000000000000
  0.2295742285057687   0.0588492600763349   0.0000000000000000
  0.2237267309732288   0.0586247739586633   0.0000000000000000
  0.2180011540540604   0.0583832555000465   0.0000000000000000
  0.2123936096745636   0.0581252700988444   0.0000000000000000
  0.2069018249031851   0.0578514118247249   0.0000000000000000
  0.2015265925874962   0.0575624139311738   0.0000000000000000
  0.1962639217171782   0.0572587327640815   0.0000000000000000
  0.1911098627978642   0.0569407701058159   0.0000000000000000
  0.1860635373512509   0.0566090833477142   0.0000000000000000
  0.1811225555455632   0.0562641183158228   0.0000000000000000
  0.1762831066659017   0.0559062017034564   0.0000000000000000
  0.1715472965099615   0.0555361405439852   0.0000000000000000
  0.1669099315072494   0.0551541804881659   0.0000000000000000
  0.1623702175183220   0.0547608759938091   0.0000000000000000
  0.1579259317985442   0.0543566416724963   0.0000000000000000
  0.1535748664842349   0.0539418626674859   0.0000000000000000
  0.1493147619729656   0.0535168899310313   0.0000000000000000
  0.1451447283274916   0.0530821904592715   0.0000000000000000
  0.1410625235604109   0.0526380756497570   0.0000000000000000
  0.1370659530359299   0.0521848322503466   0.0000000000000000
  0.1331567814638518   0.0517231967360234   0.0000000000000000
  0.1293276562313525   0.0512528455259629   0.0000000000000000
  0.1255804504092525   0.0507745502773552   0.0000000000000000
  0.1219131281255899   0.0502885988465475   0.0000000000000000
  0.1183237015509818   0.0497952534010120   0.0000000000000000
  0.1148102318092792   0.0492947513229479   0.0000000000000000
  0.1113720175725520   0.0487874812015910   0.0000000000000000
  0.1080070759532941   0.0482736140267307   0.0000000000000000
  0.1047146335147149   0.0477534816268928   0.0000000000000000
  0.1014927513745349   0.0472272179600503   0.0000000000000000
  0.0983395479756496   0.0466949369878610   0.0000000000000000
  0.0952554508934213   0.0461571322873805   0.0000000000000000
  0.0922363866432952   0.0456135046927440   0.0000000000000000
  0.0892828700951544   0.0450645654218522   0.0000000000000000
  0.0863942718297865   0.0445106297655928   0.0000000000000000
  0.0835678320075330   0.0439515803137779   0.0000000000000000
  0.0808019575920066   0.0433874837688950   0.0000000000000000
  0.0780971710598979   0.0428188278852694   0.0000000000000000
[...]
POINT_DATA 6176
SCALARS continuity float
LOOKUP_TABLE default
-0.008275652310047593
-0.006451884013965402
-0.006325030372464439
-0.006303376686321421
-0.006279419432579971
-0.00625201830482875
-0.006234840006554127
-0.006209529028937426
-0.0061869162533372875
-0.006168006947303862
-0.006148647311190523
-0.006130711851598874
-0.006115360343272301
-0.006098764398951151
-0.006084699459921837
-0.006069290944165256
-0.006047137841297696
-0.006026734275178558
-0.006006270278068937
-0.005987863523434022
-0.005971910651229955
-0.005955680864862436
-0.005939728562083856
-0.0059260275001832875
-0.005909158406250982
-0.005887006727082258
-0.005862518611535736
-0.005837941990549677
-0.005815091453531869
-0.005793378419823145
-0.005770791639541753
-0.00574719383247392
-0.005723126323135281
-0.0056999830821228906
-0.005676500269004684
-0.0056488899988387286
-0.005618269512712257
-0.00558484175541853
-0.005554380299406086
-0.005526732065135422
-0.005498758375872077
-0.005470515851638896
-0.0054424041159449816
-0.005411625803222708
-0.00537742943633689
-0.005341379403322736
-0.0053070219421100335
-0.005275730411206664
-0.005244909705397897
-0.005213047550745677
-0.005180327710941897
-0.005145685632585821
-0.0051081552475399465
-0.005068709691872232
-0.0050299381849950005
-0.004993341739381975
-0.004957318951273327
-0.004919872606709895
-0.004880711611673766
-0.004839679765422899
-0.004796214462831634
-0.0047509915552635795
-0.004705560116097788
-0.004660413691468883
-0.0046144278021691245
-0.004566798103316336
-0.004517654690556792
-0.004467277310112684
-0.0044153350708473985
-0.004361286963040145
-0.004305003944537159
-0.004246827519140454
-0.004187102056165991
-0.004125429854870569
-0.004060863580665195
-0.003993056877850306
-0.003922432890682382
-0.003849457155481721
-0.003774505568673708
-0.0036975791466659015
-0.003617710192102401
-0.003533456191595866
-0.003443983459099076
-0.0033491255211491665
-0.0032514706772688896
-0.0031552383460763454
-0.00305291426318175
-0.002955154918287106
-0.0028620649997650937
-0.002771138851097538
-0.002679928711628006
-0.002587501589857677
-0.0024944837367919144
-0.002402070510998159
-0.0023110361862376766
-0.0022217887609140836
-0.002135097578418414
-0.0020521735310455383
-0.0019731402137328755
-0.0018962892665481807
-0.0018197591687866479
-0.001743392114660987
-0.0016684698269945502
-0.0015964147984176892
-0.0015278442068489126
-0.0014633278291074127
-0.0014039602927152556
-0.0013501909475335913
-0.0013001789786121994
-0.0012513317749026601
-0.0012032528613071286
-0.0011577733225156274
-0.0011166376166251704
-0.0010798776147800553
-0.0010472999050429141
-0.0010197335049491076
-0.0009981357489893623
-0.0009805676968975992
-0.000962695235836795
-0.0009431886084967744
-0.0009248665290216942
-0.0009109883178242338
-0.0009017277279848759
-0.0008954505045748562
-0.0008921042918253723
-0.0008939647594655522
-0.0009009522886785937
-0.0009061439012878056
-0.0009050766771466817
-0.0009020914873222503
-0.0009027967902408518
-0.0009097353980359482
-0.0009198135527697772
-0.0009335743709037757
-0.0009554512312255357
-0.0009798205107089102
-0.000986515309672072
-0.0009906275867700158
-0.0010082667818189397
-0.0010285977625642435
-0.0010484401711539602
-0.0010691096583418872
-0.0010916739350047993
-0.0011226149807897102
-0.001165903375903528
-0.0011951794307833398
-0.001203557259634705
-0.001215221408476133
-0.001242531250139338
-0.001272788843955812
-0.0013021664707808123
-0.001337124897666428
-0.0013776350950841338
-0.0014128948231608733
-0.001440783973585176
-0.0014674086776235709
-0.0015008421669189687
-0.0015182710258016536
-0.0015522149784149314
-0.001589395932151397
-0.0016189151838582666
-0.0016538358057179815
-0.0016955391334619416
-0.001726257565126991
-0.0017472467096289709
-0.0017822398262417442
-0.0018197443650680245
-0.0018594760481235877
-0.0018956003002066873
-0.0019260683222422992
-0.0019428608992802165
-0.0020018086902507883
-0.0020380512228288144
-0.002082869159109527
-0.0021161424485345256
-0.0021628233365278554
-0.002199448331508238
-0.002261390367363674
-0.0022790992106680092
-0.002343271121779576
-0.0023656024389806
-0.002423343639110836
-0.00244688880647715
-0.0025098335337980157
-0.002532114214148948
-0.0025929762882234393
-0.002617280100609115
-0.0026795930449249614
-0.002702847700178654
-0.002760146448092513
-0.0027888519445193358
-0.0028486572433872866
-0.002909180966368459
-0.0029557661605915807
-0.003003987832867824
-0.0030528664289021703
-0.0031080418038671345
-0.0031627933317532005
-0.0032210677224402753
-0.0032824868474690652
-0.0033476430626465234
-0.0034196724178206556
-0.0034932748247736367
-0.0035703104239460447
-0.0036129361986245202
-0.0037254468051202416
-0.003762655108163772
-0.0038222533092103386
-0.003885233582967824
-0.003923759347479558
-0.003998846039635589
-0.00393933187395165
-0.003921000953273543
-0.0038870657223950616
-0.003839788193649918
-0.0037940243833395294
-0.003777759263139408
-0.0036638424183524933
-0.003671626156716804
-0.0035927909473866043
-0.0035110279328867426
-0.0034319929840535596
-0.003356577898902167
-0.003288803544521418
-0.003217982899201411
-0.0031458616617054203
-0.003086849408170038
-0.003033947169611088
-0.0029669917054514715
-0.0029405128368559462
-0.002854057556617626
-0.002825486678857851
-0.0027498703082463253
-0.0027336612025904367
-0.0026666009087850323
-0.002648395535816844
-0.0025898476246796667
-0.002572876422788045
-0.0025150734757452245
-0.0024978189165585285
-0.002443608712115359
-0.0024251173307508122
-0.0023632369767378415
-0.0023375536564585737
-0.0022849759424061183
-0.002263032133651566
-0.0022089791979352518
-0.002186633244767281
-0.0021315603412017433
-0.002090049424806249
-0.0020363200251334716
-0.002014285971074197
-0.001955309327145657
-0.0019190883455397858
-0.0018760631331493087
-0.0018386732168006322
-0.0017997687924870439
-0.0017649714467551736
-0.0017329037604888774
-0.0017100241739197624
-0.0016811114077575197
-0.0016442512469886307
-0.0016147147992874764
-0.0015844385650294502
-0.0015454449935978344
-0.0015106033706973913
-0.0014919189231287558
-0.0014544982215610616
-0.001420175518098282
-0.001395395653948114
-0.0013664652659338048
-0.0013254381042081386
-0.0012929511358961826
-0.0012653118990659947
-0.001236497364584762
-0.0012223212526293705
-0.0012132686627558174
-0.001187963844259124
-0.0011544453913377014
-0.0011194790782144434
-0.0010914526097270988
-0.0010686614747596884
-0.001048041815147878
-0.0010279419900369783
-0.0010071472686007102
-0.0009922010597474345
-0.0009887665613505549
-0.0009842338626874917
-0.0009713707637423045
-0.0009466853059293503
-0.0009253829392480237
-0.0009129425437690443
-0.0009045068545918476
-0.0008994011656804376
-0.0009008835345666022
-0.0009063369245130618
-0.0009096384194864529
-0.0009064457666321198
-0.0009014661838373247
-0.0009017621499269514
-0.0009077565175012494
-0.0009177534011727148
-0.0009322310675408305
-0.0009505748947736317
-0.0009699422692005932
-0.0009878439423452454
-0.001005345156168353
-0.0010265878673076487
-0.0010535810175750981
-0.0010854871012066399
-0.0011216619651054378
-0.0011623116654977267
-0.001207976003307234
-0.0012585673538347043
-0.0013125554763806335
-0.0013683583301380832
-0.001426203570406981
-0.0014885869339313945
-0.0015574359536649348
-0.0016322114355540281
-0.0017113207328435384
-0.001793309879263392
-0.0018766730224994812
-0.001960425822572238
-0.0020452334435940318
-0.00213308655551354
-0.0022251277683547326
-0.0023207445509234844
-0.0024188465190855286
-0.0025188405160632573
-0.002620344275956243
-0.0027228023963971
-0.0028252818515110798
-0.0029270349727464505
-0.0030281161301544566
-0.00312955952552188
-0.003233321139050875
-0.00334104332118303
-0.003453322185387193
-0.0035587141930050812
-0.0036637396374987414
-0.0037648004757393897
-0.003859127978966556
-0.003947238843624458
-0.004030495264706935
-0.004110696418470575
-0.00418880806748909
-0.004264751787469661
-0.0043381780018577065
-0.004408703074850129
-0.0044759216921471685
-0.004540461780787071
-0.004603393644483802
-0.004664498110559461
-0.004722999562696138
-0.004778784717701033
-0.0048324174079313114
-0.00488417507433441
-0.004933674240966008
-0.0049808543485655365
-0.005027026999247103
-0.005073276941800072
-0.0051189048788096905
-0.005162574257928396
-0.005203947876811834
-0.005243452249929266
-0.00528122086414501
-0.00531759338607321
-0.005355064902047095
-0.0053952503171525905
-0.005434994334216658
-0.005471133513642029
-0.0055055115659636495
-0.005540239011761121
-0.005575111738715314
-0.005609069250352357
-0.005641569733675927
-0.0056748396895779755
-0.005712213735310985
-0.005751459119306986
-0.005786449306817747
-0.0058176091706538735
-0.005848506782797133
-0.005880004185839917
-0.0059111452867508536
-0.005940912354961776
-0.005970374496009418
-0.006003161395802853
-0.006038929354795817
-0.006071464276934782
-0.006100974025477253
-0.006126791314190251
-0.006151875178322174
-0.006176792805059442
-0.006201112956439029
-0.006226485397978791
-0.006253062021616772
-0.006278103454000648
-0.006295449551969054
-0.006311577301892249
-0.0063271906063991435
-0.006341725971385553
-0.006354566383422178
-0.006365816295878086
-0.0063769096233565695
-0.00638984308613241
-0.006404376114947994
-0.00641763064225174
-0.006430141939680473
-0.006437151493810991
-0.006441291655767942
-0.00644930855462553
-0.006457096071312829
-0.006470385700660887
-0.006483882890164222
-0.006498407214704575
-0.006516033482860163
-0.006532834178723067
-0.006539756735367944
-0.006554000913394241
-0.0065523651316816405
-0.006574626968891392
-0.0067132686426814685
-0.006603768295147831
-0.006802313993112794
-0.006922805507127318
-0.006805597419664116
-0.0066402965023951155
-0.006726791025096823
-0.006756027873585483
-0.006475720080848293
-0.0015190673132878896
-0.006319753818639545
-0.003106769295601185
-0.006292669828874586
-0.003638011875295401
-0.006265084681429582
-0.0031135476831009486
-0.00624313645612076
-0.0014786647541388657
-0.006229054724279808
-0.0032007596054985975
-0.00621022708335722
-0.0027876745331765675
-0.006184144786184754
-0.0032985447987566655
-0.006162531512126563
-0.0014443047419907193
-0.006143470890931593
-0.0033669664330042205
-0.0061222750657494475
-0.002372164387940367
-0.006105544371167429
-0.003384654323297862
-0.00608944433890239
-0.0014157789695906308
-0.006075295957797955
-0.003359956987929641
-0.006060250988465896
-0.0028971547662635148
-0.006041476161230217
-0.003384059771829179
-0.0060195319394300085
-0.0013864774369671208
-0.005999767443712402
-0.003315137890293717
-0.0059773257727301745
-0.002729201893494031
-0.005960280812186304
-0.00336080699654293
-0.005944027478370426
-0.0013598517468337524
-0.005929462203944474
-0.0032705233312434598
-0.005913072982024899
-0.0028845196226362666
-0.005892491051467204
-0.0032939459356649643
-0.00586954526245422
-0.0013351931486307214
-0.005847382236991805
-0.003207782124200469
-0.005823916870297036
-0.0023509346267915105
-0.005801573126313384
-0.003251668183635559
-0.005779510520102397
-0.0013195652032517906
-0.005756732475946883
-0.0031311872011085705
-0.005733318483503747
-0.0029151561991600738
-0.0057096100779779856
-0.0031656352802902107
-0.005687316691489557
-0.0013088502139185802
-0.005662443452926369
-0.003083715902659878
-0.005634691868792486
-0.0032753658606725733
-0.005602659439108444
-0.0030893392023310876
-0.005570249600692368
-0.0013020070499945638
-0.005540421635631271
-0.0030129564530234658
-0.005512510574733928
-0.0029537744267495794
-0.005484313489719792
-0.0030235589648605213
-0.0054564007053244015
-0.0012982801043479708
-0.005427686844530119
-0.0029421470865969484
-0.005395894456929247
-0.0023294731075327057
-0.0053616067542836985
-0.0029627527884329846
-0.005325840743880498
-0.0013008297698770639
-0.00529263375212677
-0.00287458956995918
-0.005261402667482721
-0.0028839639520663665
-0.0052300106839784505
-0.00289300074491303
-0.005198122904328046
-0.0013078530798062624
-0.0051652104112564386
-0.002864443918857356
-0.005129834177871187
-0.0028199355830983734
-0.00509178670490362
-0.002770282983933991
-0.00505243794100802
-0.0013111191893517185
-0.005014493396290301
-0.0027803290732758396
-0.0049782375524961035
-0.0029084201451480907
-0.004941742253056384
-0.0026920122328214398
-0.00490394706183336
-0.0013114495163391803
-0.004864672352242915
-0.002644395047318505
-0.004823183634887474
-0.002300735995618262
-0.004779317667383984
-0.002661176070312086
-0.004734114690679529
-0.0013141561001658588
-0.004689067377837857
-0.0025717495174461835
-0.004643915481547809
-0.0028899239852081373
-0.004597584340926314
-0.0025723374356411122
-0.004549649351844742
-0.0013239859495407151
-0.004500378633018924
-0.0024952899245164898
-0.004449790729676177
-0.0048825737647421345
-0.004397523361251272
-0.002501901608239538
-0.0043430931842821435
-0.0013427102263671865
-0.004286527456598248
-0.0024071329633839718
-0.00422822646197743
-0.0028555253035613863
-0.004168356012377218
-0.0024264435878348215
-0.0041062655677015876
-0.0013633200085535456
-0.004041097288653289
-0.0023521191920491415
-0.003972811753268275
-0.002272118962071724
-0.0039018339659951267
-0.002293390315839139
-0.0038285761796167748
-0.0013867880545843133
-0.003753471345348503
-0.0022805224441008326
-0.003676289798225381
-0.0028201541008171793
-0.0035957895463674754
-0.002222303720688609
-0.00351064167084877
-0.0014146539718395028
-0.0034204420917984786
-0.0022333984889627728
-0.003325223905568489
-0.002811618000386799
-0.0032279542419863705
-0.0022242158088920183
-0.0031440354648906176
-0.0014002135877159885
-0.0030568424579057586
-0.002122175722123668
-0.002959166982573067
-0.0028217300176569737
-0.0028663134166894725
-0.0021162096684680487
-0.0027755556339683126
-0.001456017543895345
-0.002684801205662763
-0.0020389698957464443
-0.0025928735718137087
-0.0022506474337771303
-0.002500065676029876
-0.001958585819941018
-0.0024076438611312276
-0.0014659991676945234
-0.002316684940920141
-0.001912803674884841
-0.0022276256247739804
-0.0028510326887581324
-0.002141010763009996
-0.0019279334502968822
-0.002057794293613653
-0.0014974345416937335
-0.0019785522000678613
-0.001890510544636921
-0.0019020994897965887
-0.003263017361499608
-0.0018264067144926927
-0.001878287758184672
-0.0017506742381769344
-0.001490290389830769
-0.0016760170381802991
-0.0018705494615797128
-0.0016041192873055255
-0.0027737823763816834
-0.0015359303309470636
-0.0018162926943418602
-0.0014718713891151
-0.0015169443777361031
-0.0014125720578836909
-0.0017564324707295042
-0.0013586033851873628
-0.0018679148182335007
-0.0013091330561675405
-0.001729326464278761
-0.0012617110624063871
-0.0015545002445734313
-0.0012148340492883544
-0.0016637491517644495
-0.0011699335460333715
-0.002790153863270485
-0.0011291640502809036
-0.0016159445048808036
-0.001093396037056576
-0.0016011739237094293
-0.0010621084165529419
-0.0015758071197083323
-0.0010355253010547846
-0.003923116541578379
-0.0010139160058515026
-0.0015776489673696816
-0.000997005943581997
-0.0015802623429470046
-0.000981587204131993
-0.0015858750650641555
-0.0009646095452340291
-0.002745471423696628
-0.000947872625574377
-0.001550995719672214
-0.0009345488281167555
-0.001667802370728414
-0.0009268843128592539
-0.0014707038610440976
-0.0009228806300984772
-0.002242559222711513
-0.0009220904076263093
-0.0014790548740482698
-0.0009248158480945238
-0.0017211960754602885
-0.0009317961170440742
-0.001431252004308949
-0.0009399304737582627
-0.0027438803193777297
-0.0009419195329920393
-0.0013883820679688567
-0.0009427638060510502
-0.001662497226905615
-0.0009453304681816684
-0.0013516634538867141
-0.0009542475562482254
-0.0028267782487073883
-0.0009676057193407191
-0.0013182800611343801
-0.0009845042153259146
-0.0016897734542252987
-0.0010068729346856813
-0.001286227361815817
-0.0010309154787519024
-0.0027333283651439846
-0.0010448179000263405
-0.001290831918538645
-0.001052147163688707
-0.001731108317352434
-0.001068582857082379
-0.0012658785355927826
-0.0010923221964712852
-0.0022366561482440824
-0.0011162656367875272
-0.0012158196122623686
-0.0011419018387737439
-0.0017770136483413052
-0.0011701276755832755
-0.0012148732381246452
-0.0012049745270737947
-0.0026906086017271374
-0.0012231983430640429
-0.0011846835011625387
-0.0012678010730512892
-0.001839907754891258
-0.0012929637862252627
-0.0011588579124847558
-0.001295449092201737
-0.003680581281281527
-0.0013195789363310043
-0.0011357082659075055
-0.001354324306357812
-0.0019121105546416328
-0.0013908953692073358
-0.001121095504533717
-0.0014340705369743417
-0.0026292253710018263
-0.001478556143819203
-0.0011114256945363992
-0.0014899642102698682
-0.0018869321256320458
-0.0015490639676560213
-0.0011054536463155345
-0.001572173350567794
-0.002235233801855116
-0.0016095668744154615
-0.0010955892302975867
-0.0016162317862680941
-0.00196768406587574
-0.0016385134990905689
-0.0010788598593856375
-0.0016812627948561193
-0.001572631159164421
-0.001727470256337492
-0.001064936676054848
-0.0017781917557031747
-0.0019680683557113353
-0.0017931379218727647
-0.0010554452590255843
-0.0018599100783758613
-0.0027814055891650677
-0.001880383731696574
-0.001047950598342851
-0.001907682822678709
-0.0020064623865436206
-0.0019334178134231472
-0.0010435384308164935
-0.0019789533466181633
-0.0026210593171755252
-0.002006651978336359
-0.0010426728729525671
-0.0020452412163914488
-0.0019803754362511887
-0.0021023258704010728
-0.0010493108931283214
-0.0020943609369013807
-0.002245278427966602
-0.0021725553406725085
-0.001057791896060421
-0.002175697365684611
-0.002006665538181937
-0.0022493202784875954
-0.0010679512630824121
-0.0022557940501494855
-0.0037671557128079046
-0.0023326283079208765
-0.0010756715894291314
-0.002346226639183829
-0.002047764447331957
-0.002435905464957225
-0.001087046896988576
-0.002425988616842963
-0.0032676531431843955
-0.0025189194472196633
-0.0011032405147947488
-0.0025058559435061716
-0.002145575767923885
-0.002599114322829367
-0.001123210208778997
-0.0025941589747184627
-0.002591928848700292
-0.0026831315678951975
-0.0011477506104014754
-0.0026773092845560455
-0.0021672443336208163
-0.002767717153401379
-0.00117723522516832
-0.0027627756147420033
-0.0021996055523429807
-0.0028525644685924918
-0.0012128670714231101
-0.002869367160818863
-0.0022724264665755396
-0.002927620918587434
-0.001251724686781806
-0.002964332684042722
-0.001530278465959249
-0.003007131926404832
-0.0012924120631721248
-0.0030660564892673807
-0.00229250776557786
-0.0030972067995276116
-0.0013340823586387338
-0.0031631659407474135
-0.0028528499599188347
-0.003198452927507614
-0.0013795415393289452
-0.003272108630846553
-0.0022983403087524236
-0.003306564507724861
-0.0014300541255188107
-0.0033846387218331763
-0.0025661198531720868
-0.0034195868820196744
-0.0014851759888330662
-0.003486541315532864
-0.0022690739988617376
-0.003510259245473148
-0.0015448916639164499
-0.003540631717456272
-0.0022483908903494646
-0.0035972022463993136
-0.0016089053071843358
-0.0035517085201021963
-0.002319929991300657
-0.0035836314844756305
-0.001677101111957748
-0.0036087366643522637
-0.00253731556591548
-0.0036302873797825386
-0.0017479189777438147
-0.003633430370130183
-0.002329976278911217
-0.003583800007689217
-0.0018197480768014783
-0.003618096687942112
-0.005858155034145704
-0.0035975261532227207
-0.001891981800033072
-0.0035679327100327568
-0.002289299651304086
-0.0035309689213866963
-0.0019661913252827143
-0.003493081361490886
-0.002535437985680417
-0.003476258745280027
-0.0020437961016770245
-0.0034936087963498533
-0.002432113771192456
-0.0035246138462681938
-0.002124998368390553
-0.003495674437633541
-0.002241957663884756
-0.0034746515042103237
-0.0022092065839758967
-0.0034631160887277175
-0.0025107593738922084
-0.0034072348874519317
-0.0022958962231128827
-0.003375914587760483
-0.0024896386830734695
-0.0032938577983055825
-0.0023847649640332635
-0.003250786341113589
-0.00257236464594888
-0.003194019707488519
-0.0024751083909360263
-0.003136235807908239
-0.0028270392177424477
-0.0030933937314762913
-0.0025658585365331945