# vtk DataFile Version 1.0
GRUMMP topologically 2D mesh
ASCII

DATASET UNSTRUCTURED_GRID
POINTS 6176 float
  1.0000000000000000   0.0000000000000000   0.0000000000000000
  0.9979736161243241   0.0002872981906159   0.0000000000000000
  0.9959038003591104   0.0005818082753016   0.0000000000000000
  0.9937894604158818   0.0008826109490225   0.0000000000000000
  0.9916311447855282   0.0011889740049165   0.0000000000000000
  0.9894256878168368   0.0015011074645448   0.0000000000000000
  0.9871732566523234   0.0018189104108560   0.0000000000000000
  0.9848739492731372   0.0021423104928037   0.0000000000000000
  0.9825241245750710   0.0024717658271048   0.0000000000000000
  0.9801244133260449   0.0028071825305054   0.0000000000000000
  0.9776732769852096   0.0031487906039340   0.0000000000000000
  0.9751690039483889   0.0034968357351786   0.0000000000000000
  0.9726117072730877   0.0038512643819321   0.0000000000000000
  0.9700001180350898   0.0042121148976419   0.0000000000000000
  0.9673332227148538   0.0045793859121594   0.0000000000000000
  0.9646079236541195   0.0049533708962095   0.0000000000000000
  0.9618249648196705   0.0053338679490647   0.0000000000000000
  0.9589807878895711   0.0057213439443832   0.0000000000000000
  0.9560767311296049   0.0061156062701256   0.0000000000000000
  0.9531120216710255   0.0065167463399167   0.0000000000000000
  0.9500819018783057   0.0069253778138591   0.0000000000000000
  0.9469876484068450   0.0073412143029309   0.0000000000000000
  0.9438286210030068   0.0077641908681895   0.0000000000000000
  0.9406001269296587   0.0081947829660712   0.0000000000000000
  0.9373041277084813   0.0086325757434285   0.0000000000000000
  0.9339368121646437   0.0090779560824189   0.0000000000000000
  0.9304976431076690   0.0095309377793780   0.0000000000000000
  0.9269838874379289   0.0099918267186165   0.0000000000000000
  0.9233965242394278   0.0104604374002928   0.0000000000000000
  0.9197323684717913   0.0109371203977286   0.0000000000000000
  0.9159901296799260   0.0114219111797446   0.0000000000000000
  0.9121662515702946   0.0119150917142392   0.0000000000000000
  0.9082612640703632   0.0124164093968364   0.0000000000000000
  0.9042711890176098   0.0129261849544228   0.0000000000000000
  0.9001985925103467   0.0134439182275261   0.0000000000000000
  0.8960367883853674   0.0139703538547480   0.0000000000000000
  0.8917881131106570   0.0145051006126241   0.0000000000000000
  0.8874465968544013   0.0150488093430172   0.0000000000000000
  0.8830132689405343   0.0156012428338051   0.0000000000000000
  0.8784843643309772   0.0161627200549514   0.0000000000000000
  0.8738585592690924   0.0167332093564690   0.0000000000000000
  0.8691331845657406   0.0173128340473851   0.0000000000000000
  0.8643080629784704   0.0179014022230632   0.0000000000000000
  0.8593790220315882   0.0184992057974382   0.0000000000000000
  0.8543443022105112   0.0191062525475961   0.0000000000000000
  0.8492020742372332   0.0197225542022908   0.0000000000000000
  0.8439504592998461   0.0203481184762133   0.0000000000000000
  0.8385847225217766   0.0209832807547837   0.0000000000000000
  0.8331043690503205   0.0216278714070098   0.0000000000000000
  0.8275075883744546   0.0222818740978654   0.0000000000000000
  0.8217896079901662   0.0229456038551552   0.0000000000000000
  0.8159499389768221   0.0236188617887649   0.0000000000000000
  0.8099850870934132   0.0243017702717010   0.0000000000000000
  0.8038929332928342   0.0249942623102002   0.0000000000000000
  0.7976697970229181   0.0256964297179088   0.0000000000000000
  0.7913134730328051   0.0264081777898121   0.0000000000000000
  0.7848218596203610   0.0271293903098903   0.0000000000000000
  0.7781898173908960   0.0278602762976724   0.0000000000000000
  0.7714169256365310   0.0286005013921829   0.0000000000000000
  0.7644979701754163   0.0293502351726533   0.0000000000000000
  0.7574308659438134   0.0301093068082177   0.0000000000000000
  0.7502135053150701   0.0308775557618342   0.0000000000000000
  0.7428404612557281   0.0316551512399728   0.0000000000000000
  0.7353096164115749   0.0324418730798164   0.0000000000000000
  0.7276172963491144   0.0332375368705936   0.0000000000000000
  0.7197598859172740   0.0340418579688506   0.0000000000000000
  0.7117355290536627   0.0348543282856948   0.0000000000000000
  0.7035389878799579   0.0356747811793425   0.0000000000000000
  0.6951650952820780   0.0365031090698871   0.0000000000000000
  0.6866122709923126   0.0373388258653197   0.0000000000000000
  0.6778754950330185   0.0381817369178559   0.0000000000000000
  0.6689534383202176   0.0390312029136988   0.0000000000000000
  0.6598376964403885   0.0398871771799410   0.0000000000000000
  0.6505290121117546   0.0407486821288951   0.0000000000000000
  0.6410191910005383   0.0416153892989160   0.0000000000000000
  0.6313056496470314   0.0424862165552765   0.0000000000000000
  0.6213823079172336   0.0433602824420315   0.0000000000000000
  0.6112489281649386   0.0442362457646169   0.0000000000000000
  0.6008963123926909   0.0451137308907019   0.0000000000000000
  0.5903211292528141   0.0459917803130241   0.0000000000000000
  0.5795184839365645   0.0468692540951747   0.0000000000000000
  0.5684857150099230   0.0477443424041717   0.0000000000000000
  0.5572148862675538   0.0486154402631608   0.0000000000000000
  0.5457024491672809   0.0494805599680832   0.0000000000000000
  0.5339780836677636   0.0503353194116202   0.0000000000000000
  0.5219860728183490   0.0511813660693644   0.0000000000000000
  0.5101253307512127   0.0519891081313360   0.0000000000000000
  0.4985043971600128   0.0527514649709832   0.0000000000000000
  0.4871181100865982   0.0534694955937708   0.0000000000000000
  0.4759663238182478   0.0541439373921026   0.0000000000000000
  0.4650424897306392   0.0547759224024376   0.0000000000000000
  0.4543414694194311   0.0553665338532900   0.0000000000000000
  0.4438615277983380   0.0559167464857066   0.0000000000000000
  0.4335966445555638   0.0564277439227250   0.0000000000000000
  0.4235422171719039   0.0569005367499369   0.0000000000000000
  0.4136931783754329   0.0573360485787389   0.0000000000000000
  0.4040479201781875   0.0577350333573017   0.0000000000000000
  0.3946007843384192   0.0580984587592611   0.0000000000000000
  0.3853459130056055   0.0584273588583778   0.0000000000000000
  0.3762828394437238   0.0587225582688298   0.0000000000000000
  0.3674052759622001   0.0589850521268143   0.0000000000000000
  0.3587104110044708   0.0592156767487264   0.0000000000000000
  0.3501952433465900   0.0594152538281565   0.0000000000000000
  0.3418548081050912   0.0595846279097528   0.0000000000000000
  0.3336858663230149   0.0597246577421592   0.0000000000000000
  0.3256868701986138   0.0598362486465025   0.0000000000000000
  0.3178507769372301   0.0599203474438374   0.0000000000000000
  0.3101776523444911   0.0599777679649948   0.0000000000000000
  0.3026620994593082   0.0600092896252224   0.0000000000000000
  0.2953022098091474   0.0600156089816429   0.0000000000000000
  0.2880942515540157   0.0599974067416477   0.0000000000000000
  0.2810344582773878   0.0599553507162620   0.0000000000000000
  0.2741224198462300   0.0598902308958287   0.0000000000000000
  0.2673508102792782   0.0598027829062179   0.0000000000000000
  0.2607208372897423   0.0596938009430880   0.0000000000000000
  0.2542268737219818   0.0595639532054747   0.0000000000000000
  0.2478699323930078   0.0594139942796022   0.0000000000000000
  0.2416426526986943   0.0592444560641495   0.0000000000000000
  0.2355443386744786   0.0590559928562533   0.0000000000000000
  0.2295742285057687   0.0588492600763349   0.0000000000000000
  0.2237267309732288   0.0586247739586633   0.0000000000000000
  0.2180011540540604   0.0583832555000465   0.0000000000000000
  0.2123936096745636   0.0581252700988444   0.0000000000000000
  0.2069018249031851   0.0578514118247249   0.0000000000000000
  0.2015265925874962   0.0575624139311738   0.0000000000000000
  0.1962639217171782   0.0572587327640815   0.0000000000000000
  0.1911098627978642   0.0569407701058159   0.0000000000000000
  0.1860635373512509   0.0566090833477142   0.0000000000000000
  0.1811225555455632   0.0562641183158228   0.0000000000000000
  0.1762831066659017   0.0559062017034564   0.0000000000000000
  0.1715472965099615   0.0555361405439852   0.0000000000000000
  0.1669099315072494   0.0551541804881659   0.0000000000000000
  0.1623702175183220   0.0547608759938091   0.0000000000000000
  0.1579259317985442   0.0543566416724963   0.0000000000000000
  0.1535748664842349   0.0539418626674859   0.0000000000000000
  0.1493147619729656   0.0535168899310313   0.0000000000000000
  0.1451447283274916   0.0530821904592715   0.0000000000000000
  0.1410625235604109   0.0526380756497570   0.0000000000000000
  0.1370659530359299   0.0521848322503466   0.0000000000000000
  0.1331567814638518   0.0517231967360234   0.0000000000000000
  0.1293276562313525   0.0512528455259629   0.0000000000000000
  0.1255804504092525   0.0507745502773552   0.0000000000000000
  0.1219131281255899   0.0502885988465475   0.0000000000000000
  0.1183237015509818   0.0497952534010120   0.0000000000000000
  0.1148102318092792   0.0492947513229479   0.0000000000000000
  0.1113720175725520   0.0487874812015910   0.0000000000000000
  0.1080070759532941   0.0482736140267307   0.0000000000000000
  0.1047146335147149   0.0477534816268928   0.0000000000000000
  0.1014927513745349   0.0472272179600503   0.0000000000000000
  0.0983395479756496   0.0466949369878610   0.0000000000000000
  0.0952554508934213   0.0461571322873805   0.0000000000000000
  0.0922363866432952   0.0456135046927440   0.0000000000000000
  0.0892828700951544   0.0450645654218522   0.0000000000000000
  0.0863942718297865   0.0445106297655928   0.0000000000000000
  0.0835678320075330   0.0439515803137779   0.0000000000000000
  0.0808019575920066   0.0433874837688950   0.0000000000000000
  0.0780971710598979   0.0428188278852694   0.0000000000000000
[...]
POINT_DATA 6176
SCALARS continuity float
LOOKUP_TABLE default
0.00014084627747759483
0.00022238706912089962
0.00034923313221611735
0.0003531445748366533
0.0004770756053942562
0.0005326095168810328
0.0005679607562199792
0.0005760031538413054
0.000575050564095586
0.00057439541962598
0.0005612761994414748
0.0005514848573305864
0.0005406769542354232
0.0005289706534551486
0.0005192791839530929
0.0005137846252661665
0.0004964021712834347
0.0004781055105905151
0.00045579152182319196
0.00043383535281120786
0.0004203308369941939
0.000407933237331139
0.00039854190628648307
0.0003961192428599383
0.0003868719354053755
0.00036674299102942327
0.00034238524761287146
0.000320830180329142
0.00030271524488879924
0.0002885848325289078
0.000275770265452435
0.00026392114370287303
0.0002535047127847861
0.00024566360923933885
0.0002350388220084481
0.00021485576630660922
0.00018898155427863627
0.0001593817541608767
0.0001354629188763845
0.0001182461617819109
0.00010365894388763511
9.058199448644329e-05
7.69102913555533e-05
5.52130930496716e-05
2.5192167091637786e-05
-7.837210252880119e-06
-3.619392657092971e-05
-5.587186361089892e-05
-7.050711483202116e-05
-8.592516927323097e-05
-0.00010605593910612819
-0.00013501853211910078
-0.000173593415426031
-0.00021698857638236267
-0.0002581443299334261
-0.00029146543746633695
-0.0003186859204971353
-0.00034663176712059797
-0.0003801930257397551
-0.0004224104507926595
-0.00047490598312643423
-0.0005337809004936989
-0.0005911135480055531
-0.0006418762906855699
-0.0006885036727123727
-0.0007366762720492811
-0.0007887252700716697
-0.0008431532283627848
-0.0008988742309274988
-0.0009590734507566288
-0.0010286764591818877
-0.0011075662418162033
-0.001188903747624609
-0.0012654060433930658
-0.0013372365142282512
-0.0014112782473173235
-0.0014928343783675649
-0.0015827791385329482
-0.0016813243404071364
-0.0017871943129480917
-0.0018953529757061408
-0.0020016473621092736
-0.002107754567687911
-0.002219321125034192
-0.002333394253162169
-0.0024160609749376443
-0.0025154642299840897
-0.0026440652540578985
-0.002766398646199891
-0.002881738896898822
-0.002992559189552
-0.0030980607103792464
-0.0031982339964628046
-0.0032939693158021517
-0.0033858621105108907
-0.003473826308190088
-0.003557679644299618
-0.0036390982292907044
-0.003718739176521961
-0.0037931767821901903
-0.0038584884965547923
-0.003913947090927159
-0.003961222604296526
-0.0040019983398996
-0.004036416758623254
-0.004064378268656619
-0.004088149678662425
-0.004110798663167353
-0.004128864993446686
-0.00413564647520398
-0.004129236261424298
-0.004113332284809005
-0.004092217004323458
-0.0040660039727567964
-0.004033449582786403
-0.003996179833405916
-0.003960677482835897
-0.00392712609902041
-0.0038842310750222715
-0.0038259579628589523
-0.0037572999208450564
-0.003686981834532756
-0.0036168618006397874
-0.003543980747181765
-0.0034667511433408692
-0.003392664848819107
-0.0033313437013158995
-0.0032700614341552013
-0.0031914900612312106
-0.003098419425290591
-0.0029997519583872187
-0.00290638160431399
-0.002810929152610336
-0.002713340734991677
-0.0026321142735911667
-0.002566944738381401
-0.002468895325288018
-0.002354715793160491
-0.002258404402379988
-0.0021663442910206244
-0.0020698404617570587
-0.0019661480257776196
-0.0018544515551296241
-0.0017566013390836646
-0.0016895480661856463
-0.0016017261299335677
-0.0014982349353756799
-0.0013986161279882295
-0.0013070486491634902
-0.0012189918107269218
-0.0011191199542331355
-0.0010248759919963106
-0.0009246587333545353
-0.000836242180318675
-0.0007700728327188549
-0.0006673927609382399
-0.000564130531371569
-0.00043615419603258726
-0.0003735722682882228
-0.00030039264621152507
-0.00021214790852505354
-0.00011134975629714434
-1.570967594017677e-05
2.6044373784621236e-05
0.00013934561068756904
0.00024827365999059665
0.0003398144866262591
0.0004196031979432577
0.00048691273683329966
0.0005440787076270839
0.0006038981625721032
0.0007042648495016059
0.0008030459623315819
0.0008810150316940165
0.0009805335450487065
0.0010329626672197448
0.0011134994178616231
0.0012121137149185375
0.0011929239305862969
0.0013373537386299635
0.0012904075735179254
0.0014118420018228589
0.001309328836617461
0.001427362940042862
0.0013160710630148343
0.001466286897680583
0.0013603833096106199
0.0015296267260384588
0.0014262963472554085
0.0016372131257334354
0.0014763163488674864
0.001539070200830213
0.0015632275378159638
0.0015126501818715976
0.0014511607051830317
0.0013649754483389504
0.0013368283294519505
0.001260313934945685
0.0012195092007010915
0.0011559472849779473
0.0011757065109871561
0.001051072153972544
0.0007638028989460446
0.0003790375041881363
0.0007013631920596672
0.0007484551744886175
0.0004584376900919356
0.00015466075952776806
6.778117070494812e-05
5.693378652107844e-06
-0.00043220176212994206
-0.0008571934024617588
-0.0008972570065764047
-0.000962298970062265
-0.001095669793469271
-0.0012601170683658339
-0.0014749842741527016
-0.001567763705288122
-0.0013669348217311742
-0.0013170171952616634
-0.0014721360712209156
-0.001635462989156544
-0.0016547458226351033
-0.0015836943742260552
-0.001588542340459714
-0.0015916373246834422
-0.0016437269471962289
-0.0016801874440002904
-0.0017302255888263969
-0.001686610311886803
-0.0017417087503029437
-0.0016876589575780838
-0.0016629858209947258
-0.0016442326640544228
-0.0015403983741329474
-0.001524120589980778
-0.0014208354394461627
-0.0014004187796661544
-0.0013087359258257237
-0.0012694842721965058
-0.0011711079534063678
-0.0011100291781109184
-0.0010358360027664228
-0.0009799031148409337
-0.0009097265792835555
-0.0008392780329522726
-0.0007711876464470023
-0.000674355715086859
-0.0006598978571053377
-0.0005583132562810964
-0.0005049150691066397
-0.00036427785289091635
-0.0002906478174262472
-0.0001767364334365942
-8.464411684612046e-05
1.2683133895349483e-05
0.00011664968086015863
0.00020867096677494284
0.0003241544218971958
0.0004479607743871188
0.0005404201123005769
0.0005819407365681862
0.0007181346507563844
0.0008206029771620296
0.0008996928300437374
0.0009975444455536972
0.0011628166477273124
0.001273206842582658
0.001372734678457111
0.0014945651139818968
0.0015814560869620504
0.001593981218421439
0.0017174708551303034
0.001832130037426336
0.0019331393755483322
0.0020672424547876316
0.0021996849567696842
0.0022794935140473594
0.0023409499672073894
0.00241491559845234
0.0025068209983701477
0.002611459488850738
0.0027096777726678665
0.002799680286433147
0.0028849734422421195
0.0029880839087425334
0.003112600280236039
0.00321087540074359
0.0032775318937893943
0.0033125957099033832
0.003369971945210726
0.0034535740389727604
0.0035366135686746595
0.0036185037528441836
0.0037113207687014967
0.0037968931450331157
0.0038555858479340658
0.003883588609315103
0.003908397254771468
0.003951527457909024
0.004003602628771466
0.004053330193216261
0.004103534324711662
0.004150326209657333
0.0041812122380733
0.00418932472472328
0.004182442659886145
0.004176008091805937
0.004172183790489363
0.004162835914821454
0.004144724490524017
0.004118208556583437
0.004085274425044771
0.004045494726480743
0.003992695142061933
0.003921863862274014
0.0038353534898604557
0.0037426816702388014
0.0036498718126115365
0.0035545376997892617
0.0034540984823911956
0.0033482143614557767
0.0032358785891028747
0.003115181850204919
0.0029866103105402036
0.002854868398876584
0.0027244210334735897
0.002595527276954372
0.0024669282658204756
0.002338675147411783
0.0022115397967881157
0.002085465562237281
0.001959944426209998
0.0018339028201143478
0.001706702777413487
0.0015781604433765925
0.0014465893871136598
0.0013147105620288833
0.0012062348412587576
0.0011196570581370898
0.001022552322536165
0.0009312880198353593
0.0008449691355079176
0.0007553000003521301
0.0006610871619624122
0.000569265824320105
0.000487050362647193
0.00041682089394402334
0.0003579052543768136
0.0003078048758343378
0.00025748495293906565
0.00019815177319300537
0.00013442068233649707
7.764145920217976e-05
3.0148314989617373e-05
-1.2819159341686964e-05
-5.353329031823827e-05
-8.98462508908171e-05
-0.00012092951508487195
-0.00015306911175796476
-0.00019408186867818933
-0.00024377177486404562
-0.00029488225185056514
-0.00033968764774763377
-0.00037464498444462016
-0.0004013541775682641
-0.00042465798140368867
-0.0004512199354335936
-0.0004867287106715469
-0.0005299543413262726
-0.0005720104302715587
-0.0006063350355285939
-0.0006347220822261675
-0.0006606872876890281
-0.0006840628356649187
-0.0007050271695307306
-0.0007269592842248096
-0.0007543540017114249
-0.000788165605426181
-0.0008242503033864316
-0.0008545886949718524
-0.0008766352262595741
-0.0008940663901434365
-0.0009100913831594481
-0.0009256218339760173
-0.0009420402071725059
-0.0009621754585202683
-0.000987351441048902
-0.00101597804288851
-0.00104307916078339
-0.00106660515078765
-0.0010847127471872327
-0.0011018596658442911
-0.0011212680012465804
-0.001143191115762325
-0.0011683396216215516
-0.001195441878311065
-0.0012235603398074535
-0.0012419561577335693
-0.001256990029069701
-0.0012748170649106514
-0.0012939511508985697
-0.0013130149881561766
-0.0013312697486304744
-0.0013500749183132945
-0.0013711841811015393
-0.0013933487106083159
-0.0014107151344183934
-0.0014258192892749877
-0.001433324439373299
-0.0014417895362305027
-0.001452344460304325
-0.0014628377711064532
-0.0014688095812387652
-0.0014794757491893198
-0.0014782656281522365
-0.0014758803860085554
-0.0014661847196455558
-0.0014354204914059088
-0.0013781984056467586
-0.0012696492547201788
-0.001240536296184831
-0.0011672126601005737
-9.084099383483193e-05
-0.0008850139502462176
-0.0009144958033479615
-0.0007681821495429642
-0.000366184854739023
-8.308945381271418e-06
6.415894388805075e-05
0.0001188092431791329
-0.002934962354042406
0.0003284596318526763
-0.0014410943142676243
0.00044863035923440366
-0.001887628808274051
0.000514623502237605
-0.0013579654963969995
0.0005563435836113094
-0.0029175570587820976
0.0005807531932601073
-0.0012769865576779463
0.0005903883289385735
-0.0013703746435203051
0.0005918970922249725
-0.000997288753752373
0.0005900580505076653
-0.002898789273631781
0.000579048915388667
-0.0007937343002803935
0.0005678588671322907
-0.0007454834680160025
0.000553156577179458
-0.0005954176731667476
0.000541772154916048
-0.002881184957081777
0.0005348244815835357
-0.0003998493573691924
0.0005309165243889032
-0.0013692511959376929
0.0005149865478596609
-0.00024999990681591754
0.0004966497777618633
-0.002843112654606129
0.00046835942499623174
-5.119370769131669e-05
0.0004518535775761144
-0.0012160383536570995
0.000435638144448536
7.618698450847833e-05
0.0004236001424429747
-0.002796151389777399
0.0004174968887531087
0.0002822051645518064
0.0004161536393922114
-0.0014109335601683415
0.0003985872589937707
0.0003209404218143427
0.00038002045321396767
-0.002738753584962612
0.0003517470335366886
0.0005239000231373216
0.0003388837348067936
-0.0007866322070090222
0.0003221052466698245
0.000469659477952695
0.00030785654106692256
-0.00268539272760028
0.00029507993494996045
0.0006031192618202687
0.0002839257678885724
-0.0013982056432102063
0.0002743843595361871
0.0005697620788235208
0.0002666389759265158
-0.0026295708505983495
0.0002526911926961476
0.00060709153252095
0.00023283247898936877
-0.0011688430844103085
0.00020583340266593683
0.0006417831345759898
0.000177996849866268
-0.002570275074828168
0.00015568705744666155
0.0006972286732189
0.0001389878610863132
-0.001364758542218233
0.0001244181099288178
0.0007046882670105212
0.00011160592313727682
-0.00250281293345993
9.534710521960497e-05
0.0007746946754540743
7.095548721990518e-05
-0.0008177527261416852
4.07557895142044e-05
0.0007729708906409451
8.61284913974351e-06
-0.0024444751550681963
-1.679267695409062e-05
0.0008509038920661995
-3.4625229815648636e-05
-0.0013384092802823462
-4.954689462679144e-05
0.0008492028104745938
-6.584456349379262e-05
-0.0023928200568253642
-8.776486721686902e-05
0.0008459572093863326
-0.00011952667005194807
-0.0012056117533151497
-0.00015944629067425197
0.0009759663570577174
-0.00020277488685740893
-0.002336973677772399
-0.00024136491524204243
0.0008446307947941692
-0.0002722092383782097
-0.0011539119508698784
-0.0002993031606250313
0.0009407374539551221
-0.0003283814397789589
-0.002249194497277845
-0.0003633393607308174
0.0008907610521493763
-0.0004083200215288108
-0.0008254024684899385
-0.0004629581116977463
0.0008345598411675925
-0.0005217550173211406
-0.0021682053075828354
-0.0005768880055015048
0.0008597351477735531
-0.0006258890662711984
-0.0011853195684289304
-0.0006725936235754105
0.0007702726989294865
-0.0007215688914416782
-0.0020764706727521985
-0.000773765591983963
0.0007858397552711349
-0.0008273176926902571
0.0015202276516399402
-0.0008828797278339554
0.0006742526160629658
-0.0009449257279001704
-0.0020008905997698353
-0.0010173398737567893
0.000703911455226914
-0.0010973614611163162
-0.001199481043758982
-0.0011771704493390776
0.0006212054620685589
-0.0012510519331876957
-0.0019213463722156665
-0.001321941232667209
0.0006385132901779365
-0.001396872340704082
-0.0008421419361740475
-0.0014794088851245342
0.0005844571375353355
-0.001570449327491217
-0.0018389761018561728
-0.0016706367495637627
0.0005508511080079301
-0.0017769611204666116
-0.0012370288662387193
-0.0018838277514413
0.00048179722461355406
-0.0019885199782946027
-0.0017748864223613718
-0.0020942607730335488
0.0004339399223137054
-0.0022060196514623633
-0.0010796603717787264
-0.002318911822856532
0.00034557590680195957
-0.0023699026551810684
-0.0017863656938690467
-0.002454405226597176
0.00024368027593984928
-0.0025812376769974513
-0.001254455294389592
-0.002701412118298572
0.00018520872797230653
-0.002814680393925751
-0.0016665304892494576
-0.002923820599419058
0.00013233695457673112
-0.0030277622505066396
-0.000848099070388417
-0.0031262308273357665
8.968543605306458e-05
-0.0032198698518521446
-0.0016085488780736578
-0.003309527557748325
1.6262566145497092e-05
-0.0033952623977603034
-0.0012437371759430802
-0.003476936109291296
1.783203160948975e-05
-0.0035553189814742613
-0.0014947205508750925
-0.003631719884920831
-8.239974073934881e-05
-0.0037038691901991085
-0.0014308254524928472
-0.0037674730189071253
-0.00012581305079843646
-0.0038208704703865813
-0.0014524662567135858
-0.0038654891505294584
-0.00017253951645931743
-0.0039032984594044315
-0.0014166467958471852
-0.003934875562057747
-0.0002944326368017268
-0.003960415123778554
-0.0013715924726127359
-0.003980621187748338
-0.00039786228413176973
-0.003998411491664816
0.0007136633441014228
-0.004012951271629656
-0.00045736127365673
-0.004017756107961901
-0.0012979044779943907
-0.004009263437731818
-0.0005315710578239886
-0.003989978094509683
-0.0011354404374320074
-0.003964648818749494
-0.0006188538084859917
-0.0039349483821479085
-0.0012419018287734293
-0.003899510480855006
-0.000698234349603904
-0.003858879027528927
0.0012771740164552175
-0.003816851372789387
-0.0007556943528876944
-0.003777473592374901
-0.0012372944810806062
-0.0037323437527144216
-0.0007954110341331012
-0.0036724003779802596
-0.00116703686760809
-0.003600944783763694
-0.00086891763521684
-0.0035251786866027177
-0.001095420691227078
-0.0034503482837013886
-0.001024279565579966
-0.0033736167388448745
-0.0008684928844913222
-0.0032942381699347678
-0.001041614080231198
-0.003214662041492837
-0.0010023751226868472
-0.0031444688433087797
-0.0011176445841409727
-0.00308111557428688
-0.0011634357707480207
-0.0030001764895992242
-0.001222758049134348
-0.0029063930667014254
-0.0010094366810815922
-0.0028037749142720034
-0.0013235754947097
-0.002705038374136037
-0.0009889697831561549
-0.0026074140233682207
-0.0014159270821288872
-0.0025059281577363957
-0.0009438286254655555
-0.0024238573682587813
-0.0015026259027109993
-0.002349565486741545
-0.0013172853424920322
-0.0022643351487546814
-0.001566582085266665
-0.0021543987539167707
-0.0008933081366108257
-0.0020445826349036866
-0.0016934434908948632
-0.0019512855258986771
-0.0008868291007840772
-0.0018524977910344537
-0.0018344744570727475
-0.0017469273862204707
-0.0008288888249262156
-0.0016346252841247051
-0.0018495947024762143
-0.0015487866953370838
-0.0011097169654962602
-0.0015061617130393888
-0.0019280110563126695
-0.001389326195894897
-0.0007700300308272671
-0.0012865421774453463
-0.002028753812681432
-0.0012172780401982883
-0.0016954191097309603
-0.0011166456276781864
-0.002123453370770874
-0.0010328885348447206
-0.0007379984689413027
-0.0009323471534091825
-0.0022391475128287364
-0.0008446375629441743
-0.0008255828395970682
-0.0007355016497335731
-0.0023391823830735533
-0.0007134449665106324
-0.0006770610320766328
-0.0005553230076651571
-0.0024421925222076813
-0.0004809338529724895
-0.0008961592894377914
-0.00038301224935548197
-0.0025090494141776407
-0.0002914963636951871
-0.0006002479945838041
-0.0002394266053919629
-0.0025784469265417317
-0.00016631841771710826
-0.0011204504811182948
-7.720573391073954e-05
-0.0026534008051612816
7.839324240065767e-06
-0.0005618288850589032
4.192353386954125e-05
-0.002742194521561764
0.00019604192216850303
-0.0008465506672203
0.0002772544435713372
-0.0028282655116921205
0.0003432967580957268
-0.0005391441488638838
0.0004252439927249808
-0.002912535952954271
0.00048381659594025074
-0.0008592196281548847
0.0005472639010171608
-0.0029966816769459435
0.0006101667521650443
-0.0004856764848690692
0.0007135497153478472
-0.003087360086534834
0.0006979829930576724
-0.0009215939789489048
0.0008184668757470987
-0.003169925567139695
0.000844792299653818
-0.0004587258344089841
0.000966562197571018
-0.003241927579750889
0.0009750245513233323
0.0019836227374194033
0.0010703363289365254
-0.0032942537803559817
0.0011020661853552824
-0.000407661872633204
0.0011669609984900475
-0.003348720317562753
0.00119920874221083
-0.0017269723762582086
0.0012345302966276003
-0.0034050174831247145
0.0012166316416030287
-0.0004215305075547229
0.0012312219909996487
-0.0034560943088340432
0.001193501357567083
-0.0008825602680445403
0.0011992458543965056
-0.0035026945055275822
0.0011928748998694455
-0.0003674034079951196
0.0011978121197129448
-0.003544823914686116
0.001210444816828962
-0.0010019956596138565
0.001209707084879492
-0.0035838064700017777
0.0012016001339532681
-0.00034401318700129965
0.0011799212440558014
-0.0036164839481634273
0.0011622158887904393
0.00044966696921222934
0.0011552070096441434
-0.00363793314690797
0.0010835785524480447
-0.00026763504472100577
0.0010006303672638155
-0.003644975969623368
0.0008852558027859207
-0.0007922814248122248
0.0007825868279826677
-0.003644441422921691
0.000693668248878823
-0.0001794866128721788
0.0005618736074401402
-0.0036412327343692224
0.00047577725150127736
-0.0010830888097033324
0.0003067631091005374
-0.0036326202411362403
8.759355514876069e-05
-9.081659806422906e-05
-0.00029914291948268977
-0.003618244358943021
-0.0005567052968308352
-0.000986306835885915
-0.0002837265962938468
-0.003598093583158864
-0.0004412925473149221
-8.503524161967142e-05
-0.00043808909937845307
-0.0035724089270871705
-0.0004649930745751849
-0.0010871349728010789
-0.000464409283466452
-0.003539486444942515
-0.00030988679168689794
-7.482535475289603e-05
-0.0007534904809721164
-0.0034975221874502505
-0.000996072918553507
0.0005787928203963919
-0.0008388515062201481
-0.003445241001052738
-0.0007163069060100125
1.5819933847791548e-05
-0.0006950361140673289
-0.0033846550704514124
-0.0006211057179953144
-0.0011448205840269992
-0.0005499137223011556
-0.0033200946503652616
-0.00045184489920636444
-9.401228563593082e-05
-0.00044576418950625495
-0.00325177141778654
-0.0003158784383340557
-0.0010151504524121297
-0.00041148394783290475
-0.0031792355739083873
-0.0006717899769070763
-0.00017048277645622756
-0.0008477219901432379
-0.003102594486919358
-0.0009151577680716576
-0.00104791708017492
-0.0010114856906288136
-0.003021973496037303
-0.0010758318110666665
-0.0002021986639879514
-0.0011883656060238143
-0.0029371243594727703
-0.0012580505804855725
-0.0006560562895773044
-0.0013290042019213568
-0.002846884151187197
-0.0014093787328483417
-0.00010283636242845526