# vtk DataFile Version 1.0
GRUMMP topologically 2D mesh
ASCII

DATASET UNSTRUCTURED_GRID
POINTS 6176 float
  1.0000000000000000   0.0000000000000000   0.0000000000000000
  0.9979736161243241   0.0002872981906159   0.0000000000000000
  0.9959038003591104   0.0005818082753016   0.0000000000000000
  0.9937894604158818   0.0008826109490225   0.0000000000000000
  0.9916311447855282   0.0011889740049165   0.0000000000000000
  0.9894256878168368   0.0015011074645448   0.0000000000000000
  0.9871732566523234   0.0018189104108560   0.0000000000000000
  0.9848739492731372   0.0021423104928037   0.0000000000000000
  0.9825241245750710   0.0024717658271048   0.0000000000000000
  0.9801244133260449   0.0028071825305054   0.0000000000000000
  0.9776732769852096   0.0031487906039340   0.0000000000000000
  0.9751690039483889   0.0034968357351786   0.0000000000000000
  0.9726117072730877   0.0038512643819321   0.0000000000000000
  0.9700001180350898   0.0042121148976419   0.0000000000000000
  0.9673332227148538   0.0045793859121594   0.0000000000000000
  0.9646079236541195   0.0049533708962095   0.0000000000000000
  0.9618249648196705   0.0053338679490647   0.0000000000000000
  0.9589807878895711   0.0057213439443832   0.0000000000000000
  0.9560767311296049   0.0061156062701256   0.0000000000000000
  0.9531120216710255   0.0065167463399167   0.0000000000000000
  0.9500819018783057   0.0069253778138591   0.0000000000000000
  0.9469876484068450   0.0073412143029309   0.0000000000000000
  0.9438286210030068   0.0077641908681895   0.0000000000000000
  0.9406001269296587   0.0081947829660712   0.0000000000000000
  0.9373041277084813   0.0086325757434285   0.0000000000000000
  0.9339368121646437   0.0090779560824189   0.0000000000000000
  0.9304976431076690   0.0095309377793780   0.0000000000000000
  0.9269838874379289   0.0099918267186165   0.0000000000000000
  0.9233965242394278   0.0104604374002928   0.0000000000000000
  0.9197323684717913   0.0109371203977286   0.0000000000000000
  0.9159901296799260   0.0114219111797446   0.0000000000000000
  0.9121662515702946   0.0119150917142392   0.0000000000000000
  0.9082612640703632   0.0124164093968364   0.0000000000000000
  0.9042711890176098   0.0129261849544228   0.0000000000000000
  0.9001985925103467   0.0134439182275261   0.0000000000000000
  0.8960367883853674   0.0139703538547480   0.0000000000000000
  0.8917881131106570   0.0145051006126241   0.0000000000000000
  0.8874465968544013   0.0150488093430172   0.0000000000000000
  0.8830132689405343   0.0156012428338051   0.0000000000000000
  0.8784843643309772   0.0161627200549514   0.0000000000000000
  0.8738585592690924   0.0167332093564690   0.0000000000000000
  0.8691331845657406   0.0173128340473851   0.0000000000000000
  0.8643080629784704   0.0179014022230632   0.0000000000000000
  0.8593790220315882   0.0184992057974382   0.0000000000000000
  0.8543443022105112   0.0191062525475961   0.0000000000000000
  0.8492020742372332   0.0197225542022908   0.0000000000000000
  0.8439504592998461   0.0203481184762133   0.0000000000000000
  0.8385847225217766   0.0209832807547837   0.0000000000000000
  0.8331043690503205   0.0216278714070098   0.0000000000000000
  0.8275075883744546   0.0222818740978654   0.0000000000000000
  0.8217896079901662   0.0229456038551552   0.0000000000000000
  0.8159499389768221   0.0236188617887649   0.0000000000000000
  0.8099850870934132   0.0243017702717010   0.0000000000000000
  0.8038929332928342   0.0249942623102002   0.0000000000000000
  0.7976697970229181   0.0256964297179088   0.0000000000000000
  0.7913134730328051   0.0264081777898121   0.0000000000000000
  0.7848218596203610   0.0271293903098903   0.0000000000000000
  0.7781898173908960   0.0278602762976724   0.0000000000000000
  0.7714169256365310   0.0286005013921829   0.0000000000000000
  0.7644979701754163   0.0293502351726533   0.0000000000000000
  0.7574308659438134   0.0301093068082177   0.0000000000000000
  0.7502135053150701   0.0308775557618342   0.0000000000000000
  0.7428404612557281   0.0316551512399728   0.0000000000000000
  0.7353096164115749   0.0324418730798164   0.0000000000000000
  0.7276172963491144   0.0332375368705936   0.0000000000000000
  0.7197598859172740   0.0340418579688506   0.0000000000000000
  0.7117355290536627   0.0348543282856948   0.0000000000000000
  0.7035389878799579   0.0356747811793425   0.0000000000000000
  0.6951650952820780   0.0365031090698871   0.0000000000000000
  0.6866122709923126   0.0373388258653197   0.0000000000000000
  0.6778754950330185   0.0381817369178559   0.0000000000000000
  0.6689534383202176   0.0390312029136988   0.0000000000000000
  0.6598376964403885   0.0398871771799410   0.0000000000000000
  0.6505290121117546   0.0407486821288951   0.0000000000000000
  0.6410191910005383   0.0416153892989160   0.0000000000000000
  0.6313056496470314   0.0424862165552765   0.0000000000000000
  0.6213823079172336   0.0433602824420315   0.0000000000000000
  0.6112489281649386   0.0442362457646169   0.0000000000000000
  0.6008963123926909   0.0451137308907019   0.0000000000000000
  0.5903211292528141   0.0459917803130241   0.0000000000000000
  0.5795184839365645   0.0468692540951747   0.0000000000000000
  0.5684857150099230   0.0477443424041717   0.0000000000000000
  0.5572148862675538   0.0486154402631608   0.0000000000000000
  0.5457024491672809   0.0494805599680832   0.0000000000000000
  0.5339780836677636   0.0503353194116202   0.0000000000000000
  0.5219860728183490   0.0511813660693644   0.0000000000000000
  0.5101253307512127   0.0519891081313360   0.0000000000000000
  0.4985043971600128   0.0527514649709832   0.0000000000000000
  0.4871181100865982   0.0534694955937708   0.0000000000000000
  0.4759663238182478   0.0541439373921026   0.0000000000000000
  0.4650424897306392   0.0547759224024376   0.0000000000000000
  0.4543414694194311   0.0553665338532900   0.0000000000000000
  0.4438615277983380   0.0559167464857066   0.0000000000000000
  0.4335966445555638   0.0564277439227250   0.0000000000000000
  0.4235422171719039   0.0569005367499369   0.0000000000000000
  0.4136931783754329   0.0573360485787389   0.0000000000000000
  0.4040479201781875   0.0577350333573017   0.0000000000000000
  0.3946007843384192   0.0580984587592611   0.0000000000000000
  0.3853459130056055   0.0584273588583778   0.0000000000000000
  0.3762828394437238   0.0587225582688298   0.0000000000000000
  0.3674052759622001   0.0589850521268143   0.0000000000000000
  0.3587104110044708   0.0592156767487264   0.0000000000000000
  0.3501952433465900   0.0594152538281565   0.0000000000000000
  0.3418548081050912   0.0595846279097528   0.0000000000000000
  0.3336858663230149   0.0597246577421592   0.0000000000000000
  0.3256868701986138   0.0598362486465025   0.0000000000000000
  0.3178507769372301   0.0599203474438374   0.0000000000000000
  0.3101776523444911   0.0599777679649948   0.0000000000000000
  0.3026620994593082   0.0600092896252224   0.0000000000000000
  0.2953022098091474   0.0600156089816429   0.0000000000000000
  0.2880942515540157   0.0599974067416477   0.0000000000000000
  0.2810344582773878   0.0599553507162620   0.0000000000000000
  0.2741224198462300   0.0598902308958287   0.0000000000000000
  0.2673508102792782   0.0598027829062179   0.0000000000000000
  0.2607208372897423   0.0596938009430880   0.0000000000000000
  0.2542268737219818   0.0595639532054747   0.0000000000000000
  0.2478699323930078   0.0594139942796022   0.0000000000000000
  0.2416426526986943   0.0592444560641495   0.0000000000000000
  0.2355443386744786   0.0590559928562533   0.0000000000000000
  0.2295742285057687   0.0588492600763349   0.0000000000000000
  0.2237267309732288   0.0586247739586633   0.0000000000000000
  0.2180011540540604   0.0583832555000465   0.0000000000000000
  0.2123936096745636   0.0581252700988444   0.0000000000000000
  0.2069018249031851   0.0578514118247249   0.0000000000000000
  0.2015265925874962   0.0575624139311738   0.0000000000000000
  0.1962639217171782   0.0572587327640815   0.0000000000000000
  0.1911098627978642   0.0569407701058159   0.0000000000000000
  0.1860635373512509   0.0566090833477142   0.0000000000000000
  0.1811225555455632   0.0562641183158228   0.0000000000000000
  0.1762831066659017   0.0559062017034564   0.0000000000000000
  0.1715472965099615   0.0555361405439852   0.0000000000000000
  0.1669099315072494   0.0551541804881659   0.0000000000000000
  0.1623702175183220   0.0547608759938091   0.0000000000000000
  0.1579259317985442   0.0543566416724963   0.0000000000000000
  0.1535748664842349   0.0539418626674859   0.0000000000000000
  0.1493147619729656   0.0535168899310313   0.0000000000000000
  0.1451447283274916   0.0530821904592715   0.0000000000000000
  0.1410625235604109   0.0526380756497570   0.0000000000000000
  0.1370659530359299   0.0521848322503466   0.0000000000000000
  0.1331567814638518   0.0517231967360234   0.0000000000000000
  0.1293276562313525   0.0512528455259629   0.0000000000000000
  0.1255804504092525   0.0507745502773552   0.0000000000000000
  0.1219131281255899   0.0502885988465475   0.0000000000000000
  0.1183237015509818   0.0497952534010120   0.0000000000000000
  0.1148102318092792   0.0492947513229479   0.0000000000000000
  0.1113720175725520   0.0487874812015910   0.0000000000000000
  0.1080070759532941   0.0482736140267307   0.0000000000000000
  0.1047146335147149   0.0477534816268928   0.0000000000000000
  0.1014927513745349   0.0472272179600503   0.0000000000000000
  0.0983395479756496   0.0466949369878610   0.0000000000000000
  0.0952554508934213   0.0461571322873805   0.0000000000000000
  0.0922363866432952   0.0456135046927440   0.0000000000000000
  0.0892828700951544   0.0450645654218522   0.0000000000000000
  0.0863942718297865   0.0445106297655928   0.0000000000000000
  0.0835678320075330   0.0439515803137779   0.0000000000000000
  0.0808019575920066   0.0433874837688950   0.0000000000000000
  0.0780971710598979   0.0428188278852694   0.0000000000000000
[...]
POINT_DATA 6176
SCALARS continuity float
LOOKUP_TABLE default
-0.00016273240221890135
0.0056590286910856375
0.004905449602175828
0.004703591694764041
0.005470152624411503
0.005777113724761232
0.005923762032057942
0.005851728745770449
0.00575437742005323
0.005681774806968813
0.005510308669264455
0.005475518939965965
0.005400538767278137
0.005300430260502465
0.005209294285112755
0.0051432556758460105
0.004919371944546234
0.004742491901465874
0.004505655319791102
0.00440658737358218
0.004322036977799976
0.004226038537266788
0.00413468893533487
0.004084914928399461
0.003996418984798677
0.003850861260474055
0.0036995546605133847
0.0035957094181207527
0.0035380765342278926
0.003507985655090659
0.003473062327584329
0.0034305408215762013
0.0033969540105275235
0.003391988539476751
0.003402455441151508
0.0033784813175911405
0.003336279829904711
0.003308201057036035
0.0033353519600646513
0.0033932311674665715
0.0034338281583656156
0.0034535674344764746
0.0034544928832321966
0.003434499086292414
0.0034038492806872864
0.0033797399756622295
0.003380493956465963
0.0033977509611666404
0.003391235551848683
0.0033530259575542403
0.0033114448632555805
0.0032671942335257952
0.0032090738129556522
0.0031460629800180795
0.003103177738176478
0.0030801687142322388
0.003040306761460057
0.002980169864337058
0.002934549587325116
0.0029163240788474807
0.002908794910059239
0.00291523933388177
0.002935481411598492
0.002952116333992546
0.0029324651222522743
0.002879894435600133
0.0028144457756716246
0.002734302681604281
0.0026215268421944885
0.002478028986572408
0.0023245274562322346
0.00217979070054263
0.0020262252947693743
0.0018247127918366356
0.0015597974524388977
0.0012725722698002494
0.0010145445133158122
0.0007903084895222299
0.0005908728804419852
0.0003868556621543271
0.00014279937364460317
-0.00015899804111801523
-0.0004879734472122921
-0.0008007498092088771
-0.0010983903635838124
-0.0015762912471926208
-0.0024398812622627468
-0.0029197519751004678
-0.0031403581734753628
-0.003248410589008151
-0.003311098144305811
-0.0033433263036115675
-0.0033330745787424837
-0.0032601104622288213
-0.0031199109214410203
-0.0029086214005386206
-0.0026207675051086654
-0.0022651898305479064
-0.0018736191182277108
-0.0014974961160171799
-0.0011599205982402907
-0.0008380875438810568
-0.00051600502122241
-0.00019991647887577293
8.3857171686704e-05
0.0003400241390445754
0.0005878577270986977
0.0008228231949911259
0.00100423169022636
0.0011117518042182664
0.001183118173281112
0.0012735722790147644
0.001388796840395706
0.001492476369717638
0.0015734151238352163
0.00166275159488298
0.0017753904159225958
0.0018803012972959173
0.0019196447229996116
0.0018839036739619647
0.0018249908550718337
0.0017833933502902938
0.0017450500034534328
0.0016998704526547642
0.0016533054499120194
0.0016123354565604827
0.0015848956667981688
0.0015852854898059088
0.0015821460889475366
0.001489688099902582
0.001336270496344574
0.0011734644675936374
0.0010383423942345493
0.0009068865570507864
0.0007378343257206227
0.0005869744867167451
0.000669680994066403
0.0006130156477727115
0.00035354576961777384
0.000157134950892418
-3.096960868769353e-05
-0.0002389212915311583
-0.0004400495754564949
-0.0006724892081239827
-0.001011874819601456
-0.0010352410966526402
-0.000985419736190952
-0.0011653700242252457
-0.0014438579704822976
-0.0016403749502669587
-0.0018295008806668424
-0.002054060545861396
-0.0023396817413847844
-0.0026267235487673134
-0.0026547917560701038
-0.002946820101620538
-0.0031506878337764933
-0.0033542961297861095
-0.0036363365244034655
-0.003813193552272472
-0.003948228489518041
-0.004078335460037589
-0.004096453081533278
-0.003915526107072123
-0.00391905428564031
-0.004162420221310451
-0.004220788673424063
-0.004482351539093473
-0.004698022585166568
-0.004934393523962404
-0.005031676520535093
-0.0052233689488549485
-0.005155873080081178
-0.0052214822354452505
-0.005221004388648788
-0.005275584564787462
-0.005199010098546172
-0.005279115984201706
-0.005044262448965593
-0.0050461781399257204
-0.0048785771827029555
-0.004750346226321342
-0.004686428457966332
-0.00439729754752645
-0.004169526960314157
-0.0037022726885513352
-0.0034282117306531283
-0.0027853384132678714
-0.0024566646036446632
-0.0016792924442521151
-0.0014611873098269628
-0.0006876825918782673
-0.00010619428518895036
0.0004620723628362378
0.001194797277832049
0.0020282179589824717
0.0029767295486857596
0.0039464481501018545
0.005111511262360809
0.006320631542174161
0.007645942461695365
0.008932177874097473
0.010206308021059271
0.011609994145617497
0.011722318855797805
0.013320479011170162
0.013826939293420066
0.014570395140723587
0.015077139996919755
0.015434640776157258
0.015853806226034474
0.015187720816695258
0.014820363758602989
0.013764453844905553
0.012502368860692876
0.011341214237908005
0.009898748430418765
0.009886614616779137
0.005664997265691814
0.0035063268634670346
0.0019669107509029476
0.0006206338823180542
-0.0005988497774148633
-0.0016575344085412455
-0.0025837113682146418
-0.003216070736948153
-0.0040875636340397285
-0.0046937612767508465
-0.005284878545176493
-0.005883039869855446
-0.00618622189702543
-0.0063935113875080675
-0.006028514411091513
-0.00796665206119051
-0.00687347015331194
-0.008379204295838908
-0.007405149312461127
-0.008693449569511298
-0.007742083691209954
-0.008811764227572688
-0.00792417092176112
-0.008925279769752817
-0.008217598619074583
-0.009216019282996177
-0.00837448553317086
-0.009232600247016744
-0.008370871194867333
-0.00913604253140254
-0.008621509813729172
-0.00836608280575735
-0.008318468610729593
-0.008211069600090977
-0.008099040558604722
-0.008039582874531003
-0.007960540724624477
-0.007836400866471312
-0.007846294365854887
-0.007842433559651876
-0.007851903954510952
-0.0077295465610724805
-0.008028968569460457
-0.007659111993329509
-0.007377165088411707
-0.007199796561542494
-0.00703414068809483
-0.006779247688076228
-0.006387311950389161
-0.006313734006982897
-0.0063512642818404335
-0.006324833255613887
-0.006483209631153751
-0.006473115995599456
-0.0062708603611432686
-0.006028895219070882
-0.00578707622796624
-0.0054743310091877485
-0.005167041900432488
-0.005042516197124023
-0.005036344842706758
-0.005014073231100034
-0.004935510310969328
-0.004808705401304074
-0.004702141242485544
-0.004586736149122679
-0.004448189400798684
-0.004264945315956901
-0.004020209502287535
-0.003873156299781563
-0.0037845107994366888
-0.0038526939145843123
-0.0038353392733722074
-0.00370790513902203
-0.0035586085796121157
-0.0033843847635604985
-0.003182405403446518
-0.0030478038836541585
-0.0029969523362782485
-0.0030022223838875465
-0.0029559945387289646
-0.0028145498503181184
-0.0026246926430286604
-0.0024058197319828134
-0.002168121787495405
-0.0019625774486835426
-0.001828758223685574
-0.0017551011902916126
-0.0016718769430711248
-0.0015392237413115256
-0.0013794595752993858
-0.001232771190515095
-0.0011034993528088166
-0.0009812939577818589
-0.0008580278257620722
-0.0007666353853571121
-0.0007371143155142609
-0.000750396836340415
-0.0007351895611819956
-0.0006313938959257436
-0.0004118100452794225
-7.551392297309729e-05
0.00038058303555656587
0.0009448571874268309
0.001577985878932139
0.002257154102297212
0.002992491176627361
0.0037981529678820106
0.004673037515253662
0.005594034726933485
0.00654426136654443
0.0075117514216449304
0.008465833321571773
0.00935477407372225
0.0101233555451434
0.010749112683650757
0.011256437418943912
0.011688155711135741
0.012029069285960446
0.012184879542033138
0.012048178906822556
0.011835537865046283
0.011534458302994207
0.011091917254340463
0.010530157491401628
0.009912317060319633
0.009273055436179104
0.008614533499948205
0.007913158082489694
0.007160558202232665
0.006375474477217132
0.005603840852099189
0.004889718263470684
0.004259846839158314
0.0036979407715688533
0.0031641745674851744
0.0026338681382835805
0.0021097753665837303
0.0016025620338221724
0.0011178648250421838
0.0006584049199600059
0.00022979574376981248
-0.00014901557922057218
-0.00047600684688425826
-0.0007641705093151252
-0.0010389962306521102
-0.0013271485139567394
-0.0016330056036885532
-0.0019386019050886827
-0.0022182117411983456
-0.0024354883678952177
-0.0025869055574353965
-0.0027042016236988762
-0.0028305790077241162
-0.002953820484304189
-0.003057048502489933
-0.003139017317553164
-0.003205845080329865
-0.003255204056678922
-0.0032617859050731272
-0.003209142505016213
-0.003124729810152986
-0.0030730853872892477
-0.003047116030987641
-0.0030311239825771205
-0.0030198281741133427
-0.0030278999350946143
-0.003051241451290972
-0.0030612783861365144
-0.003014273186233075
-0.0029312179603913123
-0.0028950917806790217
-0.0028938731431297124
-0.0029279421016454098
-0.002956442636170507
-0.002980054253813602
-0.002993586724697499
-0.0029740467901702224
-0.002925221903859111
-0.0029219080375531485
-0.0029949179587927814
-0.002999946972600672
-0.00300865160045606
-0.0030183350412533805
-0.0030207500893033035
-0.0029989428407136516
-0.0029261273870572
-0.0028630354562282807
-0.0027902659487816822
-0.0027497347129059415
-0.0026758567136886484
-0.0025730996671510047
-0.0024508529858660332
-0.002278052594222364
-0.002047225806650338
-0.0017758619255297248
-0.001529038907374372
-0.0011358335947354763
-0.0006890411889657254
-0.0001225575781006757
0.0005575122802940817
0.0014802868982625888
0.002745071889799933
0.0029875558987784287
0.0010828103862077058
0.0027508035668398355
0.0033217996809105353
0.004694819140299289
0.004779846285230097
0.005404327571373032
0.004573236691237069
0.0032919490478771373
0.0036479033734275884
-0.0014923299372482815
0.004722228302293845
0.01168429399303699
0.005162392916593081
0.005245102057259064
0.005570897119584948
0.010663070241314774
0.005821184760315018
-0.001351136070814343
0.005855302477436673
0.009701259802764872
0.005848364976389674
-0.002567915371964827
0.005722077876060598
0.008994349981097938
0.005627647981308721
-0.0012565689979808295
0.005558719596840468
0.008567542401637415
0.005434160878330409
-0.0032101242151714032
0.005348348659283861
0.0077071717035001605
0.005257564211589133
-0.0012009203009575712
0.005166150945092348
0.0063635107773857245
0.005061260518558327
-0.0028626889134122954
0.004884678535932836
0.005675666414995276
0.004691246333477876
-0.001116761786757342
0.00452787701726873
0.004216424596751224
0.004357661876116259
0.0027195726225596765
0.004253235091382118
0.0037414219796889072
0.004160539213844578
-0.0010946448515757631
0.004090343816054295
0.0025756829002352
0.004012107679730731
-0.0037577605206497713
0.003866992458741922
0.001927057214351163
0.0037139861029320833
-0.0010314435159380962
0.003570920639346774
0.0010327915501688292
0.0034903812178099704
-0.00281800227954268
0.0034474194025286755
0.0006953322614422056
0.003410510082399447
-0.0009910594980436338
0.0033705721970678517
-0.0003218172813388739
0.0033292762714404855
-0.0043558627741237775
0.003303223083928178
-0.0008124901998715599
0.0033035493879188856
-0.000923394530079802
0.0033072965409071805
-0.001488278183407464
0.0032732382013922847
0.003764813034084641
0.0032293858604378486
-0.001967685826225582
0.0032163665911195084
-0.0008313566207359808
0.00326623644867769
-0.002607252883614029
0.0033198311966267245
-0.004611189722614828
0.0033537421154026166
-0.003003559391138985
0.0033750638262252733
-0.0007627649164896267
0.0033715969791179934
-0.0034560571449862754
0.003346817287219038
-0.0026810486936336923
0.0033172308558734633
-0.0038649099316211094
0.003305701498622116
-0.0008454234308521054
0.003324044359341553
-0.0041202853087403245
0.0033354639925041348
-0.005182851897231288
0.0033155368279875093
-0.004462258771564587
0.0032803379492565843
-0.0007654207778368327
0.0032392306281909867
-0.004214109417914145
0.0031883532043779053
0.0031862067175793523
0.0031248076092170213
-0.004947409724562965
0.003071689057109817
-0.0008565376311006481
0.0030425493957150144
-0.004514450695741372
0.0030133903665045658
-0.004499398295432808
0.0029593433564911466
-0.005093697369881886
0.0029007215964512627
-0.0008139865963760746
0.0028614112545622353
-0.004978710178716241
0.0028424329784987367
-0.0022814298839232507
0.0028344549377798587
-0.005073403916084884
0.0028481146589657887
-0.0008738291082370848
0.0028785134425689763
-0.0049737834878626425
0.0028870986764797245
-0.004486048308226118
0.002857074388692901
-0.005089733694591822
0.002804680694252803
-0.0008225432739061581
0.002743345907038979
-0.005017498561681855
0.002657256971870486
0.0018936164864043607
0.0025360444335954355
-0.005356820118586339
0.002384696217645584
-0.0008191838600495821
0.002235939648551126
-0.005347752799615166
0.002091417869518816
-0.004429941300182476
0.0019344079701266767
-0.005622119476022245
0.0017176874042120025
-0.0007878632613567112
0.0014437361179269925
-0.005034664953211139
0.0011653196079711905
-0.001995929771748259
0.0009154134054167442
-0.005475417699504132
0.0006963669827992113
-0.0007743018270379579
0.0004966449485585087
-0.004843768793941946
0.0002897291879089238
-0.004433362175792118
3.4034311571973496e-05
-0.005055314227749255
-0.00027429036387119165
-0.000943521644118581
-0.0005993482851024935
-0.004466061739645632
-0.0009026982053542508
0.0028512061248535257
-0.0011850912049948428
-0.004101401770993305
-0.0017605596798766924
-0.0009982434044278148
-0.0024742889266040954
-0.004385144613870212
-0.003000239088829958
-0.003984937609682336
-0.0032357460825832842
-0.0044751540202509175
-0.0033464156698418198
-0.0009446140405745807
-0.0034084886065758116
-0.004446556406286448
-0.0034434689423145873
-0.0016026493602711428
-0.0034398688057676666
-0.004503066914791151
-0.0033765616317912935
-0.0011312570634352732
-0.003247177590937418
-0.0046146044127298065
-0.0030449756643649156
-0.0036860035561682384
-0.002768585510617432
-0.004477522373348479
-0.002419385854527284
-0.0009967523822047833
-0.0020313782811865726
-0.004703883192678279
-0.0016499663502449681
0.003938217910702363
-0.0013045182780908695
-0.004567955635085921
-0.0009869598639518583
-0.0010313052419279431
-0.0006728451899632381
-0.004043271226252966
-0.00036340139463978473
-0.004065426637920367
-8.283775493728445e-05
-0.003656929072488736
0.00017502187569085403
-0.000954909986418988
0.00041145591521118713
-0.0035679847874247844
0.0006429044518192023
-0.004504194019991734
0.0008312537748058993
-0.0033936719167026435
0.0009484056163632186
-0.0010103354221378232
0.0010184663053659595
-0.003084756256393218
0.0010866009768924943
-0.0023683102869350783
0.0011766488346608146
-0.0029817105255786564
0.0012642655324078692
-0.0012753222645297741
0.001337319613896398
-0.0028835622640271306
0.0014112175315726617
-0.0013425072573660136
0.0015024109699810612
-0.002820563411075598
0.0016005837561533897
-0.0013810051980748478
0.0016520310595173923
-0.0029739019422793155
0.001626248319605483
-0.0023362442753111106
0.0015409519674141384
-0.0026545566658143526
0.001458105842727392
-0.0010826665006304164
0.0013875752531304893
-0.002543292235473605
0.0013200570848746146
-0.0013220603220505595
0.001259721613883726
-0.0024471038199686433
0.0011934210627930436
-0.0013237311189592395
0.0011413835861340616
-0.002086435882203899
0.0011501816464708305
-0.002067587677789482
0.0011744522219515159
-0.00188313806664804
0.0010771907648060388
-0.0014032324594581943
0.000883607795276484
-0.0017400248480727086
0.0006707733783108897
0.002885585289657415
0.0005099780893525143
-0.0016027622227463762
0.0003628916134866809
-0.0014439201743746113
0.00013659690259484487
-0.0013688464648054126
1.1468064129463139e-05
-0.002050234844229145
7.271939839410454e-05
-0.0012995448903004277
-3.563472761828898e-05
-0.0014320651298402396
-0.00027449664378390883
-0.0012066742635398315
-0.0005143468352236547
-0.0010068111652701006
-0.0007199157173884894
-0.0011799091388155635
-0.0009392114760402452
-0.0014441534515558427
-0.001170687519377178
-0.0010751239345770079
-0.001528959988256363
-0.0018187692222189958
-0.001622238143401717
-0.0007821184595275741
-0.0017552360051724075
-0.0015159733841804699
-0.00177770528798431
-0.0006742318245322561
-0.0018394030209983893
0.0047554324446915765
-0.002084177775200634
-0.0005239066366596817
-0.002315669513781327
-0.0017832873135112406
-0.0024936449830867
-0.0004351306035023733
-0.0028575166401304396
-0.0018414791904336732
-0.003047317890197935
-0.0002536975985462401
-0.0031916078313038807
-0.001758266140233031
-0.0035587679158999657
-0.00024524646890399014
-0.003953811564276152
-0.0008053847334531334
-0.004246210054393585
-0.00020615675994642232
-0.004034953553037003
-0.001395584879399075
-0.004250713110414931
-0.000201271523039506
-0.00439141333755737
-0.0007857904102563945
-0.004486783122388819
-3.5529843616453575e-05
-0.004670650143375352
-0.0018932263329649826
-0.004609064253957009
8.555573668179124e-06
-0.004465806894384687
0.0018984374590954307
-0.004730294745308207
4.9947479325855674e-05
-0.00501865175610508
-0.002101109688876833
-0.00495899701073798
0.00012656240140731232
-0.0053946290369923195
-0.0013646993286185033
-0.005426174564546719
0.0002368108541802942
-0.0057960115415635356
-0.002137727974719475
-0.005905262057487869
0.0003352973665768868
-0.005851424248559796
-0.0008325662808797554
-0.005720184568359263
0.00043227011534449915
-0.005761705932061299
-0.0022474772321533407
-0.005697399012991584
0.0004268915261031086
-0.005749333546902722
-0.0026097167884655756
-0.005617676025870356
0.0004100865078923979
-0.005608052581835283
-0.0021805195514848267
-0.0054718394501841175
0.0003754135047612269
-0.005442553701492851
0.004221270239946094
-0.005272588189363438
0.0003299273650449483
-0.005232366135895419
-0.0023996966557387487
-0.005050969321976714
0.00027752529189038863
-0.004810156021851521
-0.0009410451234314894
-0.00440126847096785
0.00023021457913175713
-0.0040755174177107565
-0.0025426292201305976
-0.0035703308164408655
0.00017531857274222964
-0.0031434944967210616
-0.0007760434193989027
-0.0024683708092561735
0.00011841540024438958
-0.0019606652414336854
-0.0020621964537120077
-0.001332304843927607
7.352407066614421e-05
-0.0007767395523328478
-0.003522888911575345
-8.104940785826999e-05
2.2436255218299538e-05
0.0006132451543164154
-0.002385157779292859
0.0013648341380047
-6.343941806079005e-05
0.002443912174159466
0.0016390324713367725
0.0034625048280954125
-0.0002001464869055209
0.004866361625886474
-0.002981040406604242
0.006151674650251807
-0.0003802640144974224
0.00800889920803068
-0.0004939787919078805
0.00952249681716602
-0.0005858880709746019
0.01135017617605815
-0.0034378151358495823
0.012729694588888875
-0.0008116816111147399
0.013942090570667405
-0.00028828536278589507
0.015129503203997731
-0.0010664460012991923
0.015731228251484698
-0.0029944613782764426
0.01672215147714124
-0.0013522329682838145
0.017010284892894304
-0.0003453706708239397
0.01688337476316143
-0.00164379624208888
0.016478658504884693
-0.003518337166030709
0.014843471578822398
-0.0019437277404041158
0.014183462879169342
0.0005961081609036569
0.012491729911376797
-0.002263509316337897
0.010616667285708486
-0.0033251224546883445
0.008322672830111531
-0.002618697969338277
0.006100371584244736
-0.0004895789272599186
0.004250083036397982
-0.002982145308592016
0.0025904702172134153
-0.0028986706830408685
-0.0002861656352296114
-0.0033107402163077494
-0.002675523698410781
-0.00032478077070216424
-0.0040709157432773065
-0.0035767341590098017
-0.004671175207460532
-0.002946178199162537
-0.004842296966018449
-0.003769580896868835
-0.004882664665353705
-0.00035674593214640347
-0.004869013348211869
-0.003893492238497664
-0.005010924776135864
-0.002856641979644109
-0.004968715233240191
-0.003949100507984157
-0.005300504006470873
0.001584879062754522
-0.005636367580627392
-0.003946244905749418
-0.00613474888736388
-0.0027178382144503656
-0.006165797221427457
-0.003902922490277704
-0.006373750288064115
-0.0005314449506062338
-0.006317149442553001
-0.0038295054825438486
-0.006547966271767493
0.0025103802503155187
-0.006687337839724942
-0.00371079144504263
-0.007018191657790303
0.00012805576589616153
-0.007015744890397825
-0.0034916235095592686
-0.007369570981303488