# vtk DataFile Version 1.0
GRUMMP topologically 2D mesh
ASCII

DATASET UNSTRUCTURED_GRID
POINTS 6176 float
  1.0000000000000000   0.0000000000000000   0.0000000000000000
  0.9979736161243241   0.0002872981906159   0.0000000000000000
  0.9959038003591104   0.0005818082753016   0.0000000000000000
  0.9937894604158818   0.0008826109490225   0.0000000000000000
  0.9916311447855282   0.0011889740049165   0.0000000000000000
  0.9894256878168368   0.0015011074645448   0.0000000000000000
  0.9871732566523234   0.0018189104108560   0.0000000000000000
  0.9848739492731372   0.0021423104928037   0.0000000000000000
  0.9825241245750710   0.0024717658271048   0.0000000000000000
  0.9801244133260449   0.0028071825305054   0.0000000000000000
  0.9776732769852096   0.0031487906039340   0.0000000000000000
  0.9751690039483889   0.0034968357351786   0.0000000000000000
  0.9726117072730877   0.0038512643819321   0.0000000000000000
  0.9700001180350898   0.0042121148976419   0.0000000000000000
  0.9673332227148538   0.0045793859121594   0.0000000000000000
  0.9646079236541195   0.0049533708962095   0.0000000000000000
  0.9618249648196705   0.0053338679490647   0.0000000000000000
  0.9589807878895711   0.0057213439443832   0.0000000000000000
  0.9560767311296049   0.0061156062701256   0.0000000000000000
  0.9531120216710255   0.0065167463399167   0.0000000000000000
  0.9500819018783057   0.0069253778138591   0.0000000000000000
  0.9469876484068450   0.0073412143029309   0.0000000000000000
  0.9438286210030068   0.0077641908681895   0.0000000000000000
  0.9406001269296587   0.0081947829660712   0.0000000000000000
  0.9373041277084813   0.0086325757434285   0.0000000000000000
  0.9339368121646437   0.0090779560824189   0.0000000000000000
  0.9304976431076690   0.0095309377793780   0.0000000000000000
  0.9269838874379289   0.0099918267186165   0.0000000000000000
  0.9233965242394278   0.0104604374002928   0.0000000000000000
  0.9197323684717913   0.0109371203977286   0.0000000000000000
  0.9159901296799260   0.0114219111797446   0.0000000000000000
  0.9121662515702946   0.0119150917142392   0.0000000000000000
  0.9082612640703632   0.0124164093968364   0.0000000000000000
  0.9042711890176098   0.0129261849544228   0.0000000000000000
  0.9001985925103467   0.0134439182275261   0.0000000000000000
  0.8960367883853674   0.0139703538547480   0.0000000000000000
  0.8917881131106570   0.0145051006126241   0.0000000000000000
  0.8874465968544013   0.0150488093430172   0.0000000000000000
  0.8830132689405343   0.0156012428338051   0.0000000000000000
  0.8784843643309772   0.0161627200549514   0.0000000000000000
  0.8738585592690924   0.0167332093564690   0.0000000000000000
  0.8691331845657406   0.0173128340473851   0.0000000000000000
  0.8643080629784704   0.0179014022230632   0.0000000000000000
  0.8593790220315882   0.0184992057974382   0.0000000000000000
  0.8543443022105112   0.0191062525475961   0.0000000000000000
  0.8492020742372332   0.0197225542022908   0.0000000000000000
  0.8439504592998461   0.0203481184762133   0.0000000000000000
  0.8385847225217766   0.0209832807547837   0.0000000000000000
  0.8331043690503205   0.0216278714070098   0.0000000000000000
  0.8275075883744546   0.0222818740978654   0.0000000000000000
  0.8217896079901662   0.0229456038551552   0.0000000000000000
  0.8159499389768221   0.0236188617887649   0.0000000000000000
  0.8099850870934132   0.0243017702717010   0.0000000000000000
  0.8038929332928342   0.0249942623102002   0.0000000000000000
  0.7976697970229181   0.0256964297179088   0.0000000000000000
  0.7913134730328051   0.0264081777898121   0.0000000000000000
  0.7848218596203610   0.0271293903098903   0.0000000000000000
  0.7781898173908960   0.0278602762976724   0.0000000000000000
  0.7714169256365310   0.0286005013921829   0.0000000000000000
  0.7644979701754163   0.0293502351726533   0.0000000000000000
  0.7574308659438134   0.0301093068082177   0.0000000000000000
  0.7502135053150701   0.0308775557618342   0.0000000000000000
  0.7428404612557281   0.0316551512399728   0.0000000000000000
  0.7353096164115749   0.0324418730798164   0.0000000000000000
  0.7276172963491144   0.0332375368705936   0.0000000000000000
  0.7197598859172740   0.0340418579688506   0.0000000000000000
  0.7117355290536627   0.0348543282856948   0.0000000000000000
  0.7035389878799579   0.0356747811793425   0.0000000000000000
  0.6951650952820780   0.0365031090698871   0.0000000000000000
  0.6866122709923126   0.0373388258653197   0.0000000000000000
  0.6778754950330185   0.0381817369178559   0.0000000000000000
  0.6689534383202176   0.0390312029136988   0.0000000000000000
  0.6598376964403885   0.0398871771799410   0.0000000000000000
  0.6505290121117546   0.0407486821288951   0.0000000000000000
  0.6410191910005383   0.0416153892989160   0.0000000000000000
  0.6313056496470314   0.0424862165552765   0.0000000000000000
  0.6213823079172336   0.0433602824420315   0.0000000000000000
  0.6112489281649386   0.0442362457646169   0.0000000000000000
  0.6008963123926909   0.0451137308907019   0.0000000000000000
  0.5903211292528141   0.0459917803130241   0.0000000000000000
  0.5795184839365645   0.0468692540951747   0.0000000000000000
  0.5684857150099230   0.0477443424041717   0.0000000000000000
  0.5572148862675538   0.0486154402631608   0.0000000000000000
  0.5457024491672809   0.0494805599680832   0.0000000000000000
  0.5339780836677636   0.0503353194116202   0.0000000000000000
  0.5219860728183490   0.0511813660693644   0.0000000000000000
  0.5101253307512127   0.0519891081313360   0.0000000000000000
  0.4985043971600128   0.0527514649709832   0.0000000000000000
  0.4871181100865982   0.0534694955937708   0.0000000000000000
  0.4759663238182478   0.0541439373921026   0.0000000000000000
  0.4650424897306392   0.0547759224024376   0.0000000000000000
  0.4543414694194311   0.0553665338532900   0.0000000000000000
  0.4438615277983380   0.0559167464857066   0.0000000000000000
  0.4335966445555638   0.0564277439227250   0.0000000000000000
  0.4235422171719039   0.0569005367499369   0.0000000000000000
  0.4136931783754329   0.0573360485787389   0.0000000000000000
  0.4040479201781875   0.0577350333573017   0.0000000000000000
  0.3946007843384192   0.0580984587592611   0.0000000000000000
  0.3853459130056055   0.0584273588583778   0.0000000000000000
  0.3762828394437238   0.0587225582688298   0.0000000000000000
  0.3674052759622001   0.0589850521268143   0.0000000000000000
  0.3587104110044708   0.0592156767487264   0.0000000000000000
  0.3501952433465900   0.0594152538281565   0.0000000000000000
  0.3418548081050912   0.0595846279097528   0.0000000000000000
  0.3336858663230149   0.0597246577421592   0.0000000000000000
  0.3256868701986138   0.0598362486465025   0.0000000000000000
  0.3178507769372301   0.0599203474438374   0.0000000000000000
  0.3101776523444911   0.0599777679649948   0.0000000000000000
  0.3026620994593082   0.0600092896252224   0.0000000000000000
  0.2953022098091474   0.0600156089816429   0.0000000000000000
  0.2880942515540157   0.0599974067416477   0.0000000000000000
  0.2810344582773878   0.0599553507162620   0.0000000000000000
  0.2741224198462300   0.0598902308958287   0.0000000000000000
  0.2673508102792782   0.0598027829062179   0.0000000000000000
  0.2607208372897423   0.0596938009430880   0.0000000000000000
  0.2542268737219818   0.0595639532054747   0.0000000000000000
  0.2478699323930078   0.0594139942796022   0.0000000000000000
  0.2416426526986943   0.0592444560641495   0.0000000000000000
  0.2355443386744786   0.0590559928562533   0.0000000000000000
  0.2295742285057687   0.0588492600763349   0.0000000000000000
  0.2237267309732288   0.0586247739586633   0.0000000000000000
  0.2180011540540604   0.0583832555000465   0.0000000000000000
  0.2123936096745636   0.0581252700988444   0.0000000000000000
  0.2069018249031851   0.0578514118247249   0.0000000000000000
  0.2015265925874962   0.0575624139311738   0.0000000000000000
  0.1962639217171782   0.0572587327640815   0.0000000000000000
  0.1911098627978642   0.0569407701058159   0.0000000000000000
  0.1860635373512509   0.0566090833477142   0.0000000000000000
  0.1811225555455632   0.0562641183158228   0.0000000000000000
  0.1762831066659017   0.0559062017034564   0.0000000000000000
  0.1715472965099615   0.0555361405439852   0.0000000000000000
  0.1669099315072494   0.0551541804881659   0.0000000000000000
  0.1623702175183220   0.0547608759938091   0.0000000000000000
  0.1579259317985442   0.0543566416724963   0.0000000000000000
  0.1535748664842349   0.0539418626674859   0.0000000000000000
  0.1493147619729656   0.0535168899310313   0.0000000000000000
  0.1451447283274916   0.0530821904592715   0.0000000000000000
  0.1410625235604109   0.0526380756497570   0.0000000000000000
  0.1370659530359299   0.0521848322503466   0.0000000000000000
  0.1331567814638518   0.0517231967360234   0.0000000000000000
  0.1293276562313525   0.0512528455259629   0.0000000000000000
  0.1255804504092525   0.0507745502773552   0.0000000000000000
  0.1219131281255899   0.0502885988465475   0.0000000000000000
  0.1183237015509818   0.0497952534010120   0.0000000000000000
  0.1148102318092792   0.0492947513229479   0.0000000000000000
  0.1113720175725520   0.0487874812015910   0.0000000000000000
  0.1080070759532941   0.0482736140267307   0.0000000000000000
  0.1047146335147149   0.0477534816268928   0.0000000000000000
  0.1014927513745349   0.0472272179600503   0.0000000000000000
  0.0983395479756496   0.0466949369878610   0.0000000000000000
  0.0952554508934213   0.0461571322873805   0.0000000000000000
  0.0922363866432952   0.0456135046927440   0.0000000000000000
  0.0892828700951544   0.0450645654218522   0.0000000000000000
  0.0863942718297865   0.0445106297655928   0.0000000000000000
  0.0835678320075330   0.0439515803137779   0.0000000000000000
  0.0808019575920066   0.0433874837688950   0.0000000000000000
  0.0780971710598979   0.0428188278852694   0.0000000000000000
[...]
POINT_DATA 6176
SCALARS continuity float
LOOKUP_TABLE default
-8.340072665818891e-05
-0.0019111009865702378
-0.001956487352013705
-0.001592423079975732
-0.0014575590766361007
-0.00130010993828974
-0.001133306625087844
-0.0009514923061235384
-0.0007919201075411305
-0.0006679006651323026
-0.0005150674413509486
-0.00039913529739405725
-0.00028213458236668945
-0.00015696446268678358
-4.798809446204709e-05
4.0593288058337365e-05
0.00015346457745073208
0.00024997502580496054
0.0003580185857401153
0.0004367009812079039
0.0004934950164001903
0.0005597792170047762
0.0006203964076351929
0.0006501442729937945
0.000672217719905522
0.0007110044596366591
0.0007485124731766669
0.000779453806975488
0.0008006099195984553
0.0008207692559170835
0.0008478835791954623
0.0008717879251929773
0.0008845241108647991
0.000882335271104593
0.0008694914813679477
0.0008683365502936157
0.0008766021936223494
0.0008949339900774541
0.0009113997496747968
0.0009299476299915021
0.0009543770795615713
0.0009690017842721014
0.0009674698232454952
0.000964653142176761
0.0009649385887168083
0.0009691427996146601
0.00097159591676799
0.0009729934310144774
0.0009676137605678047
0.0009402256695035791
0.0008948843396100602
0.0008479145511557833
0.000805470666094339
0.0007596570341569959
0.0007059487398300627
0.0006438575358614451
0.000563711681956355
0.0004568886740010262
0.00032977294966787335
0.00020064318063235678
7.935701088726074e-05
-3.529180372446784e-05
-0.000144884773641107
-0.0002552553372723531
-0.00037492627280504286
-0.0005021839188024794
-0.0006247267007146545
-0.000734574999060022
-0.0008379491854065322
-0.0009443295338655959
-0.001051599747373149
-0.0011468975487454178
-0.001219776994606844
-0.001273086186267565
-0.001313928726275134
-0.001341979709866179
-0.0013430710929684235
-0.0013130651971515399
-0.0012562726044384814
-0.0011730759674724398
-0.0010552084398768372
-0.0008970152597586857
-0.0006939861418087996
-0.00044039716316650963
-0.00015475609801146486
8.208958242733831e-05
0.0002942076771706309
0.0005069594283778478
0.0007055116317007098
0.000909518487531879
0.0011391062788139099
0.0013952979964013223
0.0016564999436569016
0.001899459366990625
0.0021160191079515234
0.0023050345749908736
0.0024606490890544796
0.0025727469077077318
0.00264170186727125
0.0026882838434674166
0.002732334663828375
0.0027706280743450677
0.0027834135317162554
0.002761974720161329
0.002711354822596101
0.0026343986460858173
0.0025213857634967043
0.002365831553840076
0.002191229410140396
0.0020374603584219905
0.0019135215552869799
0.0017968852001465122
0.0016669864117353776
0.0015326230813760828
0.0014042232504824668
0.0012694982043621125
0.001107103184337838
0.0009311701806197575
0.0007971036806506553
0.0007328809636755919
0.0007023246758809009
0.0006575397714533152
0.0005957913205782475
0.0005358828523347282
0.00047478419451809555
0.0003815652166353681
0.00024434380450945916
0.0001301097059307437
0.00011361061108312984
0.00016779756829559886
0.0002275894946892648
0.00024240366331690043
0.00024216287136331004
0.00022000387531421147
0.00012254406824034915
-5.688884721077761e-06
8.204726398094319e-05
0.00026014499029647256
0.00031729765340144625
0.0003469680723196969
0.00039556013415971533
0.00046815246510278994
0.0005439352759760855
0.0005346823031062935
0.00036069462091454797
0.0003300231884913311
0.0005861110063341151
0.0008612893770575434
0.0009701972637543616
0.0010496813765359437
0.0011550034547271263
0.001206208897282086
0.0012115388560522446
0.0010669581047801776
0.0011973402550923145
0.0013802368751438018
0.0015613944779558323
0.0018447615126909712
0.0019300690876715638
0.0019871624980623897
0.0021834137058128534
0.0023660506134604393
0.0022063239975230733
0.0023493327857326577
0.002629923139604711
0.0027463398227288026
0.002880946500437519
0.0030409808518978426
0.0032329235386959363
0.0034698945071774154
0.003960718591836205
0.003849373263072058
0.003960489864550434
0.004001958890817193
0.004237911951465439
0.004345837012530774
0.004638299842961176
0.00444987633404575
0.004986977522797776
0.004970887591809728
0.005443003784982585
0.005553157877680964
0.005998746215637052
0.00603491804394637
0.0064340820594207095
0.006496307239381216
0.006839222217601761
0.0069475187310958355
0.007276492373802481
0.007480863619474039
0.007761334623968811
0.008061912728174553
0.00816188484329183
0.008465802421127475
0.00876268151708678
0.009047476721972529
0.009241901291930034
0.00947425104477991
0.00968212932007249
0.009902652161318203
0.010092548691936933
0.010280836471415103
0.010422535578316525
0.010475038430123484
0.010813201296207048
0.010290920662051518
0.010692346095892891
0.010706554131187561
0.01064026425687833
0.010644201656554664
0.010508578616111255
0.010249650360150252
0.01036002631464926
0.01062337718774174
0.01083856927274705
0.010977288426120916
0.010688509446617101
0.011262658563452157
0.010955588042635259
0.011455221090930737
0.011281401644242312
0.010919462508453142
0.010748984556352854
0.0107934908726556
0.010678092583942643
0.010629670463440483
0.010350111066176825
0.009873117965293585
0.009650317228379175
0.009068621168220565
0.009172022960789318
0.008674985382835343
0.008610056013448447
0.00793882732512875
0.0082830960435896
0.007632898194470589
0.00786940158113474
0.00719890978993444
0.007403520433072803
0.006747362739831834
0.006922108101873858
0.006323163952722114
0.006607992399044565
0.006043615380954876
0.006290253320681715
0.005696040961765794
0.005920422116218361
0.005285861660941709
0.005520930577504512
0.0053498382035646825
0.005260642057865638
0.00497638733713996
0.005071320725528348
0.0048502228824575545
0.004774072652994342
0.004681714233281591
0.004631908529830191
0.004608250565421224
0.004562404299782738
0.0044342127318666305
0.004200403572622497
0.004396889800967187
0.004263155059163782
0.004185727454227803
0.004181823315748921
0.004092111623489449
0.003905569697449839
0.0038414083795965644
0.0038130474293190555
0.0037202515906612763
0.0036176530846808905
0.0038401100484779216
0.003821633216605717
0.0037767781916674585
0.003738522519804257
0.003571035932118355
0.003382479484183698
0.0033545136076116736
0.0034062719221283505
0.003454737677108212
0.0034608787974274233
0.0034330317219884786
0.0033976558903705753
0.0033722684052114884
0.003352950096159729
0.0032925134050343806
0.00317650962621293
0.0031022041324383414
0.00312469350616097
0.003206215523977062
0.003267788287242561
0.003278290761318458
0.003262347499066314
0.0032223630845948583
0.00313893259739958
0.003048684948505263
0.0030155409431394556
0.0030559080287373024
0.003117736694097833
0.0031469746291028036
0.003137177777840188
0.0031039076888021767
0.0030438467219409205
0.0029721387487614244
0.002931047670844761
0.002945097303048639
0.003002951704748593
0.0030630301209010145
0.003110851162180637
0.003164844883064782
0.0032390262488058165
0.003323117704011168
0.003399630651448412
0.0034607587101073297
0.003519050399319645
0.0035906151670415543
0.0036673674000013887
0.003717117066352258
0.003713898909625572
0.003657149105258027
0.0035536847337962977
0.003402591043587464
0.0032174560408933426
0.0030226901972523214
0.0028195311831024426
0.0025856922690996537
0.0023030064341709707
0.001974112477580277
0.0016101242570125652
0.0012120767005479281
0.0007754212608697262
0.0003085585106703116
-0.00016486924228801988
-0.0006104749210603493
-0.001005696412728631
-0.0013557732983187551
-0.001704986822282212
-0.0020872524045495336
-0.002331882055960942
-0.002446046193836544
-0.0027089231424233208
-0.002940904254734557
-0.003108313441384226
-0.003234021793424806
-0.0033326390476914915
-0.003398917708909575
-0.003417323258264019
-0.0033762009458892005
-0.0032689104255178205
-0.0031095159697964196
-0.0029479882068187396
-0.0028214396717432073
-0.002704500004520972
-0.0025515475472628903
-0.0023610370718141634
-0.0021549778790259165
-0.001933202325912649
-0.001683625107589985
-0.0014145108008205148
-0.0011648737725610517
-0.0009658509753584043
-0.0008030780028843831
-0.0006307638729254913
-0.00041408643870946094
-0.00015380277715380694
0.0001223642113531666
0.0003737169102229953
0.0005709400207688806
0.0007028194778855028
0.0007880121994159654
0.0008734892084784349
0.0009838315021874443
0.0010971348814069663
0.0011910229139856484
0.0012667348552533896
0.0013168437916798558
0.0013300164185310313
0.0013018469251269954
0.0012422937311786482
0.0011793050165575297
0.0011454813865117448
0.0011468979907335905
0.0011603941633588839
0.001171494603748354
0.001171776515906838
0.001157702990504683
0.0011321465783633424
0.00110048794472531
0.001081362498949897
0.0010878449609601816
0.0011125134828926248
0.0011519177579504417
0.001195441700902102
0.0012462097555378322
0.0013035592243604798
0.0013740993262460009
0.001454100457220546
0.0015598550473177376
0.0016656046496670133
0.0017889262037514455
0.0019011340536417072
0.0019927812390310023
0.002065443368074136
0.0021187233654817146
0.0021635261744698286
0.0021536591788437276
0.002139291897857449
0.002071792126468341
0.0019928279172405777
0.0018813115182885081
0.0017553282203009648
0.001554373915936008
0.0013296377977416595
0.0010647176777982552
0.0007992937194762904
0.0004981130476857755
0.0001429527246781972
-0.00024379377709191877
-0.000652381178450678
-0.001047174056444187
-0.0014886200004325047
-0.0017910402253773765
-0.0015166020532496906
-0.0017168004136486794
-0.002020228373158419
-0.001969841489685064
-0.00271920870670067
-0.0034135032629833096
-0.0026497136366404133
-0.0019109245269269938
-0.0016696279167168987
0.001087925856723268
-0.0016965864053787335
0.008387502474455457
-0.0015878727022939844
0.0067922755650720625
-0.00142910085655914
0.008216312398863002
-0.0012806451106537238
0.0009246192011034456
-0.0011188012561083312
0.008521589984781086
-0.0009916435368897277
0.006522229276576105
-0.0008149763794044471
0.00865123508877912
-0.0006736986113307016
0.0007297959251273496
-0.0005397433276467477
0.0090282172396015
-0.0003910781634808469
-0.0002775458920145806
-0.0002615919099950283
0.008510533461991576
-0.00014268675091848787
0.0005062904886365474
-4.5668539839767835e-05
0.008958899882897234
3.374291371870342e-05
0.006109103830535277
0.00013529228050689117
0.008263326217866733
0.00024129740351781383
0.00032933373087286094
0.00034644978548764376
0.008725039587067848
0.00043334966803675837
0.002551786232136866
0.0005026232276555879
0.0077498239924318636
0.000570523063671793
0.00019325549504570116
0.0006206908568876753
0.008140379350437814
0.0006334846654032012
0.0058139091313452775
0.000681278633032502
0.007472459759605323
0.0007179000624860969
8.33928304406853e-05
0.0007580335580671676
0.007636593475590802
0.0007734691407076153
-0.00032704926644454296
0.0007922883151414283
0.006897737568745036
0.0008154906500419936
-6.298420101265923e-05
0.0008403151319146368
0.007313765269667602
0.0008590716112183188
0.0056245251695484335
0.0008656421856600008
0.006673656109639155
0.0008517723036560864
-0.0002136982828440227
0.0008417708580635924
0.007030134735067353
0.0008411502068657931
0.00442872164079479
0.0008532574396241949
0.006305861460080972
0.0008648062609661108
-0.00034134913621209224
0.0008827625885791523
0.006589384135475726
0.000904473786353086
0.005327349611403928
0.000924461351753446
0.005859391644602187
0.0009335461490189129
-0.00045131363293625555
0.000932490649594133
0.006187251013864699
0.0009312233267251117
-0.00042617900345907314
0.0009311007727908539
0.005311474045633356
0.0009351501386633674
-0.0006014901754890493
0.000939284018304799
0.00569209338027762
0.0009419554050447487
0.004867867100283406
0.0009302052823100575
0.004824989297940163
0.0008968218403072769
-0.0007462242897082398
0.0008515716993457893
0.004913742439673986
0.0008066335351536946
0.002634710045733236
0.0007639256696292563
0.004231320557005636
0.0007168744911329054
-0.0008674370470613354
0.0006645994445678702
0.004559976365838669
0.0006012616119862673
0.00454891720627246
0.0005143058680867547
0.003760720340356208
0.00040065290081462394
-0.0008488061290022314
0.00027176193457593913
0.004260161266413991
0.0001436684242877781
-0.00036731739097578726
2.3238084519282208e-05
0.003482404281830383
-9.069144092130727e-05
-0.0007991044728270875
-0.00019908405089544268
0.0038201331668763407
-0.0003112103205340563
0.004337050731173363
-0.00043377989492918465
0.0032961252097430172
-0.0005626312737147618
-0.0007634611392281864
-0.0006828145413139945
0.0035450245576680046
-0.0007920939785063864
0.002571153025889054
-0.0008984263569479202
0.0029680630669986076
-0.0010074942667708203
-0.0008167712545666446
-0.0011138900215624814
0.0034768849956587776
-0.0012034636757551809
0.003957512976090709
-0.0012711885783721836
0.0028824837785823344
-0.0013226778983387584
-0.000836056339106351
-0.001366385122036917
0.003127900029002601
-0.001392580913623071
-0.0002829453118761556
-0.0013895470809902949
0.002357758010433873
-0.0013567378468520516
-0.0008600170923938664
-0.0012982042437226248
0.0026395673268077885
-0.0012098892395099774
0.003789961724686982
-0.0010867736738747829
0.002087582509562834
-0.0009236657606941901
-0.0009425741793329926
-0.0007149824054657827
0.0023382542763125762
-0.00045478631371118723
0.0021192132130068066
-0.00016962446965610386
0.002206103651796743
-1.0823920235427628e-05
-0.0009988706454474657
0.0001965894540713243
0.002064942051077696
0.00040973143959073966
0.003415661243710246
0.0006081746984581045
0.0018639762078957543
0.00080857104790399
-0.001033479660138287
0.0010306830921906858
0.001635733788026711
0.0012806031421517274
-0.00020991066749810513
0.001541680110613293
0.0016436265080874818
0.0017887650433863528
-0.0010043988258197102
0.0020080143557683473
0.0014671298536318475
0.0021977471138459014
0.0030710784888573037
0.0023559094302535197
0.0011789898726318779
0.0024738547671197307
-0.0008651862297402454
0.0025456048428964826
0.0008013746324012328
0.002587769375792279
0.00488825026337428
0.002623154289763012
0.0008497665518887701
0.0026581550052481432
-0.0007299699156920008
0.0026745583778409756
0.0008031253747549346
0.002656021588053654
0.00321943947591391
0.002603631059565104
0.000750880291574957
0.0025243047591311596
-0.0006185755941875763
0.002412334929920945
0.000649681071665325
0.00226271448440736
0.005254114710328687
0.002084678128807413
0.0006488558207974168
0.0019148923620514288
-0.0005857558934374367
0.0017799279468624432
0.0006463387521797281
0.0016623703697663766
0.002877513909010936
0.0015370316831703295
0.000549637551574003
0.001397202649801684
-0.000653542766601822
0.0012582769455775713
0.000421021587601212
0.0011194565467201542
-0.0038498848463685517
0.000965610029046825
0.00012251279305028586
0.0007956716009832834
-0.0007250680714206398
0.0006439749269475598
-0.00016797966439441374
0.0005590857281271022
0.002923740091755603
0.0005225169682819851
-0.00019364804263555574
0.0004905177621162812
-0.0006613311305239307
0.0004288134670868372
-0.0001418717418858897
0.0003602527105738249
-0.00024687991221714696
0.0002895883754507188
-0.00013958316890192213
0.00020460369514382096
-0.0005405915942604908
8.881293906711632e-05
-0.00010616924475890904
-3.0410112661529982e-05
0.002731820384821597
-5.956578259738175e-05
-0.00016502422553809102
-2.7729111487198235e-05
-0.00035951534306811995
3.242840378560328e-05
-0.00023046883726167747
5.805622533090797e-05
0.002142508708585013
5.177915459236133e-05
-0.0002704302047218337
2.7155068493398365e-05
-0.00021819198073861045
-3.721754178086486e-05
-0.0003008956520677264
-0.00012811443039144097
0.0022765949285718664
-0.000125015912220689
-0.0005388541400258896
2.8984224618177796e-05
-0.00016263774894437514
0.00013895963844607712
-0.0006637162541749898
0.0001702317146570487
-0.00024128140160164125
0.0002109396981751454
-0.0005855303150367303
0.00026871284758822297
-5.112821676864587e-05
0.000328813432785409
-0.0005657823914750035
0.00032271285523372256
0.002358988059048564
0.00030052073780208503
-0.0005017883003954231
0.0002075464672596638
4.832040339683141e-05
0.0003383177269167933
-0.0004914284550516866
0.000642957695069717
0.0067541349241283626
0.0008178678322839841
-0.0004856644640335897
0.0008943018048704814
5.1573030398740155e-06
0.0009839001614522771
-0.0005638043770859247
0.0010215571599571007
0.0023521208622869043
0.001028664662685376
-0.0006362658277000227
0.0010721633044873
4.544656152429062e-05
0.0010630939681157015
-0.0006993402439883716
0.0011915829917132023
-0.00020942906572712341
0.001253464169597529
-0.0006388866610647419
0.001616311646630604
0.00024027789385483832
0.0018171345704465073
-0.0005268554117476313
0.0018906007492037647
0.005589471491368274
0.0020184499547895576
-0.0004168098049810961
0.002138239110327616
0.00020971120038347483
0.0022173420496277314
-0.0003469900878520007
0.002313247837613612
0.0014630678048710203
0.002480229337909224
-0.00027976186317543044
0.0025236458359667096
4.3386357217850915e-05
0.0028234958910911905
-0.00020439385790611706
0.002834485405726063
0.001923761053922576
0.003158975221834602
-0.0001380457014115155
0.0033180308504559297
0.0004897009604715449
0.0035913305938408756
-0.00011415284896852509
0.0037343402217891205
-0.00027824649694746967
0.0037435185658296036
-6.662772207886375e-05
0.003909362528881961
0.0006153602255900097
0.004041131933179263
2.6024690374445562e-05
0.00425858317905652
-0.002305872186259126
0.004398447860777582
0.00018956807080033227
0.004477680788066788
0.0008552907679066392
0.004761259112314811
0.00035185290661635815
0.0049913727470433265
0.00514144721005927
0.0052706786364325325
0.0005011844282553927
0.005560385053532095
0.0007575488962552975
0.0058188530290119835
0.0006509259275632886
0.005989882048693637
0.0016516504416407812
0.006252551929273606
0.0008079017957363776
0.006419972541532439
0.0008536313120838205
0.006656326794309322
0.0009644314633329172
0.006838168640937175
-0.000410588713687328
0.007062777017813268
0.0011010133460459437
0.007265571844720613
0.001145022106368583
0.007526810889083544
0.0012416326639387147
0.007654836111802987
0.004874357287520374
0.007927728042465885
0.0014082262071935866
0.007994755913519017
0.0012046374557905099
0.008456485986758256
0.001600482272557615
0.008483848176862038
0.0017208252571257762
0.008850567812056143
0.0017841223768266577
0.008800302796089801
0.0010909659268864352
0.009155534185014351
0.0019384375165068634
0.009076304810694373
0.0018749587021035024
0.009384210971164176
0.0020647134076555705
0.009277106464217127
0.0007758024892124681
0.009348888184804713
0.002167396188553992
0.009296614992447948
-0.0003275806564058935
0.009452917524232215
0.002243010023610375
0.009364267668507347
0.0014109155810863969
0.009469154830242823
0.002280263450367973
0.009463330691036678
0.001984504286414576
0.009378931137516205
0.0022883909684113797
0.009391024568628777
0.0013414704960655497
0.008915148716371902
0.002280298683493803
0.008677658767258565
0.0054783589638422135
0.008709678389602295
0.002268363593202777
0.008798116371863582
0.00187022886506171
0.008811498960098245
0.002234945054418569
0.00882690920170072
0.0015935747010413694
0.008848940703228282
0.0021669786608370157
0.009113938693564503
0.001740688383541142
0.009253232225815602
0.002057788577347089
0.009247413126231148
-0.0003069230049836283
0.009454264881032298
0.0019141076835683412
0.009453242374224381
0.001990220361223264
0.00985864827080322
0.0017391233258596856
0.009792045874352786
0.001402815152957843
0.010153023961536747
0.0015331264843576292
0.009969790885559666
0.0022355940067570997
0.009822120209437537
0.0013007686577859977
0.009619885649256334
0.0015817407063045056
0.009177438901128439
0.0010538605871220253
0.009011523448710207
0.002429293110060748
0.00873815249923941
0.0008157404301732625
0.00867889826959235
0.001579361490607827
0.008185462142751718
0.0005958272424048899
0.008270278237049813
0.00036860495283657735
0.00795869919104887
0.00038991977521201537
0.007961589585297376
2.3185963863252483e-06
0.007611295758827482
0.00019134209029636104
0.007552879263147196
0.002371669998589107
0.007201399266315829
-1.2490630594119576e-05
0.007114455811761643
0.0011279394888835013
0.006772174560349796
-0.0002626747399833034
0.006673335468500622