# vtk DataFile Version 1.0
GRUMMP topologically 2D mesh
ASCII

DATASET UNSTRUCTURED_GRID
POINTS 6176 float
  1.0000000000000000   0.0000000000000000   0.0000000000000000
  0.9979736161243241   0.0002872981906159   0.0000000000000000
  0.9959038003591104   0.0005818082753016   0.0000000000000000
  0.9937894604158818   0.0008826109490225   0.0000000000000000
  0.9916311447855282   0.0011889740049165   0.0000000000000000
  0.9894256878168368   0.0015011074645448   0.0000000000000000
  0.9871732566523234   0.0018189104108560   0.0000000000000000
  0.9848739492731372   0.0021423104928037   0.0000000000000000
  0.9825241245750710   0.0024717658271048   0.0000000000000000
  0.9801244133260449   0.0028071825305054   0.0000000000000000
  0.9776732769852096   0.0031487906039340   0.0000000000000000
  0.9751690039483889   0.0034968357351786   0.0000000000000000
  0.9726117072730877   0.0038512643819321   0.0000000000000000
  0.9700001180350898   0.0042121148976419   0.0000000000000000
  0.9673332227148538   0.0045793859121594   0.0000000000000000
  0.9646079236541195   0.0049533708962095   0.0000000000000000
  0.9618249648196705   0.0053338679490647   0.0000000000000000
  0.9589807878895711   0.0057213439443832   0.0000000000000000
  0.9560767311296049   0.0061156062701256   0.0000000000000000
  0.9531120216710255   0.0065167463399167   0.0000000000000000
  0.9500819018783057   0.0069253778138591   0.0000000000000000
  0.9469876484068450   0.0073412143029309   0.0000000000000000
  0.9438286210030068   0.0077641908681895   0.0000000000000000
  0.9406001269296587   0.0081947829660712   0.0000000000000000
  0.9373041277084813   0.0086325757434285   0.0000000000000000
  0.9339368121646437   0.0090779560824189   0.0000000000000000
  0.9304976431076690   0.0095309377793780   0.0000000000000000
  0.9269838874379289   0.0099918267186165   0.0000000000000000
  0.9233965242394278   0.0104604374002928   0.0000000000000000
  0.9197323684717913   0.0109371203977286   0.0000000000000000
  0.9159901296799260   0.0114219111797446   0.0000000000000000
  0.9121662515702946   0.0119150917142392   0.0000000000000000
  0.9082612640703632   0.0124164093968364   0.0000000000000000
  0.9042711890176098   0.0129261849544228   0.0000000000000000
  0.9001985925103467   0.0134439182275261   0.0000000000000000
  0.8960367883853674   0.0139703538547480   0.0000000000000000
  0.8917881131106570   0.0145051006126241   0.0000000000000000
  0.8874465968544013   0.0150488093430172   0.0000000000000000
  0.8830132689405343   0.0156012428338051   0.0000000000000000
  0.8784843643309772   0.0161627200549514   0.0000000000000000
  0.8738585592690924   0.0167332093564690   0.0000000000000000
  0.8691331845657406   0.0173128340473851   0.0000000000000000
  0.8643080629784704   0.0179014022230632   0.0000000000000000
  0.8593790220315882   0.0184992057974382   0.0000000000000000
  0.8543443022105112   0.0191062525475961   0.0000000000000000
  0.8492020742372332   0.0197225542022908   0.0000000000000000
  0.8439504592998461   0.0203481184762133   0.0000000000000000
  0.8385847225217766   0.0209832807547837   0.0000000000000000
  0.8331043690503205   0.0216278714070098   0.0000000000000000
  0.8275075883744546   0.0222818740978654   0.0000000000000000
  0.8217896079901662   0.0229456038551552   0.0000000000000000
  0.8159499389768221   0.0236188617887649   0.0000000000000000
  0.8099850870934132   0.0243017702717010   0.0000000000000000
  0.8038929332928342   0.0249942623102002   0.0000000000000000
  0.7976697970229181   0.0256964297179088   0.0000000000000000
  0.7913134730328051   0.0264081777898121   0.0000000000000000
  0.7848218596203610   0.0271293903098903   0.0000000000000000
  0.7781898173908960   0.0278602762976724   0.0000000000000000
  0.7714169256365310   0.0286005013921829   0.0000000000000000
  0.7644979701754163   0.0293502351726533   0.0000000000000000
  0.7574308659438134   0.0301093068082177   0.0000000000000000
  0.7502135053150701   0.0308775557618342   0.0000000000000000
  0.7428404612557281   0.0316551512399728   0.0000000000000000
  0.7353096164115749   0.0324418730798164   0.0000000000000000
  0.7276172963491144   0.0332375368705936   0.0000000000000000
  0.7197598859172740   0.0340418579688506   0.0000000000000000
  0.7117355290536627   0.0348543282856948   0.0000000000000000
  0.7035389878799579   0.0356747811793425   0.0000000000000000
  0.6951650952820780   0.0365031090698871   0.0000000000000000
  0.6866122709923126   0.0373388258653197   0.0000000000000000
  0.6778754950330185   0.0381817369178559   0.0000000000000000
  0.6689534383202176   0.0390312029136988   0.0000000000000000
  0.6598376964403885   0.0398871771799410   0.0000000000000000
  0.6505290121117546   0.0407486821288951   0.0000000000000000
  0.6410191910005383   0.0416153892989160   0.0000000000000000
  0.6313056496470314   0.0424862165552765   0.0000000000000000
  0.6213823079172336   0.0433602824420315   0.0000000000000000
  0.6112489281649386   0.0442362457646169   0.0000000000000000
  0.6008963123926909   0.0451137308907019   0.0000000000000000
  0.5903211292528141   0.0459917803130241   0.0000000000000000
  0.5795184839365645   0.0468692540951747   0.0000000000000000
  0.5684857150099230   0.0477443424041717   0.0000000000000000
  0.5572148862675538   0.0486154402631608   0.0000000000000000
  0.5457024491672809   0.0494805599680832   0.0000000000000000
  0.5339780836677636   0.0503353194116202   0.0000000000000000
  0.5219860728183490   0.0511813660693644   0.0000000000000000
  0.5101253307512127   0.0519891081313360   0.0000000000000000
  0.4985043971600128   0.0527514649709832   0.0000000000000000
  0.4871181100865982   0.0534694955937708   0.0000000000000000
  0.4759663238182478   0.0541439373921026   0.0000000000000000
  0.4650424897306392   0.0547759224024376   0.0000000000000000
  0.4543414694194311   0.0553665338532900   0.0000000000000000
  0.4438615277983380   0.0559167464857066   0.0000000000000000
  0.4335966445555638   0.0564277439227250   0.0000000000000000
  0.4235422171719039   0.0569005367499369   0.0000000000000000
  0.4136931783754329   0.0573360485787389   0.0000000000000000
  0.4040479201781875   0.0577350333573017   0.0000000000000000
  0.3946007843384192   0.0580984587592611   0.0000000000000000
  0.3853459130056055   0.0584273588583778   0.0000000000000000
  0.3762828394437238   0.0587225582688298   0.0000000000000000
  0.3674052759622001   0.0589850521268143   0.0000000000000000
  0.3587104110044708   0.0592156767487264   0.0000000000000000
  0.3501952433465900   0.0594152538281565   0.0000000000000000
  0.3418548081050912   0.0595846279097528   0.0000000000000000
  0.3336858663230149   0.0597246577421592   0.0000000000000000
  0.3256868701986138   0.0598362486465025   0.0000000000000000
  0.3178507769372301   0.0599203474438374   0.0000000000000000
  0.3101776523444911   0.0599777679649948   0.0000000000000000
  0.3026620994593082   0.0600092896252224   0.0000000000000000
  0.2953022098091474   0.0600156089816429   0.0000000000000000
  0.2880942515540157   0.0599974067416477   0.0000000000000000
  0.2810344582773878   0.0599553507162620   0.0000000000000000
  0.2741224198462300   0.0598902308958287   0.0000000000000000
  0.2673508102792782   0.0598027829062179   0.0000000000000000
  0.2607208372897423   0.0596938009430880   0.0000000000000000
  0.2542268737219818   0.0595639532054747   0.0000000000000000
  0.2478699323930078   0.0594139942796022   0.0000000000000000
  0.2416426526986943   0.0592444560641495   0.0000000000000000
  0.2355443386744786   0.0590559928562533   0.0000000000000000
  0.2295742285057687   0.0588492600763349   0.0000000000000000
  0.2237267309732288   0.0586247739586633   0.0000000000000000
  0.2180011540540604   0.0583832555000465   0.0000000000000000
  0.2123936096745636   0.0581252700988444   0.0000000000000000
  0.2069018249031851   0.0578514118247249   0.0000000000000000
  0.2015265925874962   0.0575624139311738   0.0000000000000000
  0.1962639217171782   0.0572587327640815   0.0000000000000000
  0.1911098627978642   0.0569407701058159   0.0000000000000000
  0.1860635373512509   0.0566090833477142   0.0000000000000000
  0.1811225555455632   0.0562641183158228   0.0000000000000000
  0.1762831066659017   0.0559062017034564   0.0000000000000000
  0.1715472965099615   0.0555361405439852   0.0000000000000000
  0.1669099315072494   0.0551541804881659   0.0000000000000000
  0.1623702175183220   0.0547608759938091   0.0000000000000000
  0.1579259317985442   0.0543566416724963   0.0000000000000000
  0.1535748664842349   0.0539418626674859   0.0000000000000000
  0.1493147619729656   0.0535168899310313   0.0000000000000000
  0.1451447283274916   0.0530821904592715   0.0000000000000000
  0.1410625235604109   0.0526380756497570   0.0000000000000000
  0.1370659530359299   0.0521848322503466   0.0000000000000000
  0.1331567814638518   0.0517231967360234   0.0000000000000000
  0.1293276562313525   0.0512528455259629   0.0000000000000000
  0.1255804504092525   0.0507745502773552   0.0000000000000000
  0.1219131281255899   0.0502885988465475   0.0000000000000000
  0.1183237015509818   0.0497952534010120   0.0000000000000000
  0.1148102318092792   0.0492947513229479   0.0000000000000000
  0.1113720175725520   0.0487874812015910   0.0000000000000000
  0.1080070759532941   0.0482736140267307   0.0000000000000000
  0.1047146335147149   0.0477534816268928   0.0000000000000000
  0.1014927513745349   0.0472272179600503   0.0000000000000000
  0.0983395479756496   0.0466949369878610   0.0000000000000000
  0.0952554508934213   0.0461571322873805   0.0000000000000000
  0.0922363866432952   0.0456135046927440   0.0000000000000000
  0.0892828700951544   0.0450645654218522   0.0000000000000000
  0.0863942718297865   0.0445106297655928   0.0000000000000000
  0.0835678320075330   0.0439515803137779   0.0000000000000000
  0.0808019575920066   0.0433874837688950   0.0000000000000000
  0.0780971710598979   0.0428188278852694   0.0000000000000000
[...]
POINT_DATA 6176
SCALARS continuity float
LOOKUP_TABLE default
-0.001363755626233777
0.00020796151238162115
0.0008568228053782472
0.0011666609395443116
0.0012491612860505061
0.001330821216630718
0.0013522359319216534
0.0014756744709525306
0.0015835786090750445
0.0016618927461154866
0.0017285131241444485
0.0017781034100431022
0.0017832300826754635
0.001801460825542728
0.001801554492360084
0.0018128502874277706
0.0018617434587717015
0.0018967737681528294
0.0019277563171034553
0.0019255466346555638
0.0019062622764992793
0.0018934570481425517
0.0018843403852823268
0.0018764764763391434
0.0018828341421121512
0.0018990915855640201
0.001913037976372252
0.0019241764930452443
0.0019292479924403658
0.0019305177837183156
0.0019358579554157435
0.0019467369185919823
0.0019624173142906935
0.001978199085109704
0.0019928563318639624
0.00201172722025375
0.00203196429252227
0.0020564589576320996
0.002068061821427601
0.002069259329589335
0.002072659767333619
0.0020788043006437335
0.0020859686732152146
0.002094977573126733
0.002103241646103188
0.0021093271066647125
0.002107168493568331
0.002096314715183031
0.0020878838656325743
0.002088059289078554
0.0020919674932232254
0.0020927262114962485
0.002086659467851446
0.002073858498833691
0.0020530681043222387
0.002023803706575487
0.0019946105881874818
0.0019741464644146035
0.0019590946179385473
0.0019415008619509883
0.001915375306582588
0.001876689362471959
0.0018251433984984313
0.0017659958849682229
0.001707374806400084
0.00165288175800689
0.001598602506914272
0.0015408706937076737
0.0014825884004348547
0.00142735707867796
0.0013698884073547295
0.0012979031417888862
0.001203290748885019
0.00109122938660677
0.0009759195226768844
0.000867843691984706
0.0007638622371735115
0.000656388249345367
0.0005380063861765241
0.000398458495233889
0.00023151667172610093
4.496057755187632e-05
-0.0001502652288082922
-0.00035406596093619046
-0.0005682865613312585
-0.0007732481106434232
-0.000903921458302526
-0.0010671508208505015
-0.0012574187432007281
-0.0014545682023094672
-0.0016495423101469124
-0.0018406501408916765
-0.0020298664679629444
-0.0022170921612458673
-0.0023997198240044973
-0.002572292251143805
-0.0027323727221108414
-0.0028838191625672467
-0.003030826121397425
-0.0031744182292898276
-0.003313319425257639
-0.0034463941311075417
-0.003572516386079871
-0.003689903501317789
-0.0037963096384197263
-0.0038895512625614567
-0.003970494111381907
-0.0040460204779222235
-0.004125513032893558
-0.0042133808324246146
-0.0043066026045670966
-0.004397859044476456
-0.004481309887197506
-0.0045562876461459996
-0.004621000781751507
-0.0046690947778563995
-0.004701264646601357
-0.004733233769184135
-0.0047881014472877185
-0.004866536845433761
-0.004946145128070583
-0.00500469290471467
-0.005042652856773627
-0.005070751466317144
-0.005085029863249847
-0.005068589851030334
-0.005029604988251236
-0.005021000135223864
-0.005077553151184653
-0.005169701781441894
-0.005247805498959632
-0.005282408488032933
-0.005288617672217612
-0.005261895417962556
-0.005174682563799699
-0.00506434387649947
-0.0051133856032636845
-0.005243405136731661
-0.005292113770020228
-0.0052974865027642665
-0.005295834766815847
-0.005295709460962441
-0.005283044479070558
-0.005194721823534739
-0.0049522412964224
-0.0047448486006721495
-0.0048996732006514505
-0.005155985841602587
-0.005223595532713799
-0.005223261452449796
-0.005210252764495295
-0.005122641388903614
-0.004964587019083828
-0.004430203307595281
-0.004690768410813402
-0.004665792938181461
-0.0047492934143679505
-0.004860384664775587
-0.004906081004922596
-0.004841459845549741
-0.004902109925878911
-0.004931930527640286
-0.004302396558814724
-0.004545241564716429
-0.004555483805855077
-0.004495602064594269
-0.004432472644928064
-0.004482041135857708
-0.00450966753583302
-0.004620135341602067
-0.005019541349674164
-0.0046174758412028645
-0.00443925034618639
-0.004257600499969733
-0.004216127448218012
-0.004145344926070651
-0.004207335784662172
-0.0034546120693527524
-0.004234735803489572
-0.003542888226359056
-0.0043357210728975654
-0.0037728073492922024
-0.004742465024208802
-0.004010522618084389
-0.0048809501830608835
-0.004073633851048389
-0.004858311393635738
-0.004045847014332859
-0.004831260896364001
-0.003988302715809362
-0.005032261636457621
-0.0049851993343457066
-0.005001298115629366
-0.005357281914860366
-0.005713124833312195
-0.006046355875380753
-0.006196419608884819
-0.006517359015552225
-0.0067212552529511875
-0.006997113580697285
-0.0071566782097165415
-0.007628613013609284
-0.008273935516353189
-0.008714842166793574
-0.008124195808070708
-0.008374650562670827
-0.009299352382853385
-0.009671608566489453
-0.009637164377646742
-0.009749322668293672
-0.010374001483040724
-0.010016591358105129
-0.010023934812534366
-0.010144993034536719
-0.010211511566470101
-0.010028810370770476
-0.009213140093819919
-0.00870260086891548
-0.008297678020728385
-0.008461694306869933
-0.007916729937867135
-0.007105164288153593
-0.006567347071453761
-0.00639534460248175
-0.00613074992807091
-0.006020645326422704
-0.005733768618096473
-0.005243217084366937
-0.0050373467804696245
-0.004513586929343161
-0.00480085959419672
-0.004353162727116542
-0.004544350997996774
-0.003693697723105119
-0.0046138474625068
-0.003776063723980739
-0.004580355926767138
-0.0037546166873475956
-0.00451119987720831
-0.0036845257168162063
-0.004390506508658721
-0.003640104799361976
-0.004504942874697619
-0.003717252936297215
-0.004565596114380177
-0.003741774549362713
-0.0045336154045296185
-0.0036608087342772278
-0.004354998000211957
-0.004311672635140982
-0.004335140500669271
-0.004123499345905459
-0.004475364106814669
-0.004368458256936225
-0.004428415992021047
-0.004497121348544141
-0.004580635740915837
-0.0047216993230430465
-0.0048078867241835455
-0.00483699364542182
-0.004479453632294526
-0.005028474546479909
-0.00495626326530072
-0.00497475842643425
-0.00507486060732415
-0.004995326240835481
-0.004890225902389902
-0.004889466175756709
-0.00499931150945593
-0.005097915970467046
-0.004947922532971076
-0.00544877779402999
-0.0055033044844541475
-0.005510872697683366
-0.005500428926105377
-0.005326332048337535
-0.005173378158640035
-0.0052603774078871434
-0.0054346407564232774
-0.005544925061943043
-0.005605270586520541
-0.0056354356842644995
-0.005654251392193071
-0.005670485868708746
-0.005678356934467799
-0.0056411497341399145
-0.005556827618506956
-0.005510509068739213
-0.005553905025792975
-0.005653233448075865
-0.005723918473790224
-0.005745731239478849
-0.00573369756988577
-0.005695638209625327
-0.0056246725565383595
-0.0055427042165603424
-0.0054867781678764145
-0.0054735252456707875
-0.005481064113020044
-0.005476881193492518
-0.0054466884054733735
-0.00539671590443548
-0.005329289403060649
-0.005245807841058486
-0.005155382963206596
-0.005072034573713435
-0.005002053823873655
-0.004936785620171723
-0.004862901801846507
-0.004775496765563294
-0.004676422103153056
-0.004569226196965162
-0.004455684153485305
-0.0043364678653843546
-0.0042123392740508045
-0.004085577367835953
-0.0039613949960564995
-0.0038431970902610053
-0.0037264786676522985
-0.0036019109326452603
-0.0034657378668303705
-0.003318658687072928
-0.0031592703348319678
-0.0029853405163461264
-0.002799609674052558
-0.0026085750032495774
-0.00241479742202933
-0.0022143026767300926
-0.0020035053617698403
-0.0017836129778664499
-0.0015593596892381513
-0.0013352523824664692
-0.0011116997530177441
-0.0008832464225310188
-0.0006463676935237889
-0.0004058710874726549
-0.0001740824921119714
2.7466012403827064e-05
0.00019710204901639573
0.0004230808499247607
0.0006566473349362027
0.0008839547948570089
0.0011059677162775317
0.0013190262542751503
0.0015097424553367881
0.0016693407136489321
0.0018025716644848445
0.0019194849336119169
0.0020287340588943676
0.0021408852202611972
0.0022594108887741497
0.0023698810170992694
0.0024559860110571607
0.0025213522032682557
0.0025789968868948163
0.002635320712360881
0.0026877907289386744
0.002736758258655333
0.0027917653753659604
0.002858992478423429
0.0029314630386497874
0.0029990568163055778
0.003055633393399852
0.0030985786814146108
0.003130685871806889
0.0031619474054011914
0.003201831671817409
0.0032509104948025692
0.003297488713471259
0.0033314694800764795
0.003352760010133535
0.0033640014082454983
0.0033672619026669445
0.0033658267283363965
0.0033633070247276204
0.0033662143419007293
0.0033766490463454676
0.003386301409416106
0.0033848035573782486
0.003373377275377138
0.0033576848922290932
0.003335454907992179
0.003308307021213557
0.003281314053342527
0.0032591786566148503
0.003244141178402403
0.0032329043518060357
0.00321362643176368
0.0031896829339090535
0.0031722038956640912
0.003154006690262508
0.0031351760332305576
0.0031206472254566996
0.0031161307983356493
0.003120070694995673
0.003128437774238198
0.0031382063514234088
0.0031575973636104766
0.0031764220058149843
0.003199131850386794
0.003237545497346131
0.003284779693171424
0.003337575359760138
0.003392513303589851
0.003450226486435085
0.0034915973321235747
0.0035069752011134036
0.003498601150682572
0.0034821773566072107
0.0034789044699166543
0.003494141526734903
0.0034773006961021104
0.0034570420070014997
0.00336395473953642
0.0032708517037258536
0.003117870542472753
0.002927594289636303
0.002720573071778501
0.002592846203945614
0.002339931996526925
0.001966406562389484
0.0017226145414199344
0.0015994934513268292
0.00028879674209569177
0.0007234147303714333
0.001036909925755912
6.929767656420486e-05
-0.0010252315435488818
-0.00046188309817391156
0.0003623814581167119
0.0009544777264085482
-0.0032946445171037537
0.0010793433939495886
-0.005789348079968868
0.001225701977392503
0.00397796809193967
0.0013249421398620123
-0.004949522418933051
0.0013848215239588833
-0.003320222745159737
0.0013747286773638809
-0.004993624783994922
0.00146147636567898
-0.001057615380991324
0.0015944381501288322
-0.004672145267361015
0.0016775217941340358
-0.003348613420167043
0.0017528208573282381
-0.005366619266163589
0.0017882983074085463
-0.0005335589409192969
0.001804355037817627
-0.00420165595889095
0.0018203235315494039
-0.003374915685493878
0.0018093083401053607
-0.005248248820085044
0.0018274827613667815
-0.00044619417659570645
0.0018665878008499838
-0.003939066939847498
0.0019025120711500835
-0.0034097697096254595
0.0019254709321362526
-0.005003861993208864
0.0019226053003397602
0.00171909235702581
0.0019078426181882453
-0.0033535675028947744
0.0018956827561976103
-0.0034289518176442344
0.001883312125949225
-0.004247981109905963
0.0018785627539496877
-0.00028684988418563816
0.00189132471441303
-0.0030504570291886857
0.0019056055418752438
-0.0034521533460479623
0.0019174494382272205
-0.0036201228807115674
0.0019237983558356693
-0.00047470547983407576
0.001925524908426172
-0.0024446534051732233
0.0019270561396970015
-0.003445162847978789
0.0019327370604112538
-0.0035644060032593815
0.001943244206337545
-0.0004215595604462102
0.001959497803045788
-0.002621683913659168
0.001972446992457897
-0.003425346327580681
0.001988948578857567
-0.0035181220908885617
0.0020057617711602433
0.003219889222068266
0.002030447987546022
-0.002730667602178151
0.002050446709147087
-0.003405345768139648
0.0020588646923481685
-0.00345839812763187
0.002060602730211092
-0.00026083464125427997
0.0020655322356863933
-0.00270182160018521
0.002072179679307118
-0.003380094310501739
0.002080865343762047
-0.003421116160785312
0.002090488943774707
-0.0004226533018422173
0.0020970761789028958
-0.0025081126135253705
0.0020998121565557167
-0.003355511982726091
0.002092469094561057
-0.003209059738683934
0.0020819232989622563
0.00023856826039519644
0.0020779499854486905
-0.002265809831514977
0.0020805437759880536
-0.0033160178590899213
0.002084871684564962
-0.002233609373685307
0.0020848313344310992
0.002194519558580923
0.002076971388622793
-0.002078421944453834
0.0020616290209774326
-0.003327467560803936
0.00203585813110637
-0.002187998015033552
0.0020049472010590904
0.0007856871724233783
0.0019793556004822515
-0.0019292254813043158
0.0019617712644451656
-0.0033304309032378917
0.0019472365348130675
-0.0025768875180155926
0.0019285226679748443
-0.0003884372083646015
0.001898946696321248
-0.0018476942761067434
0.0018555806992253323
-0.0033452858712428326
0.0017999289470075543
-0.0025133306093219347
0.001739281052923375
0.0006660337384017795
0.0016816486804307046
-0.0021380367418292945
0.0016272098407170037
-0.0033182064810766995
0.0015714867497749752
-0.002715758374882392
0.0015136813742431395
0.006820045269041481
0.0014576765838368033
-0.0023555818201896435
0.0014039761698389297
-0.0032451284007646354
0.0013438902907534059
-0.003246991747793486
0.0012652279218761974
0.0009054204548378249
0.0011638520167455335
-0.0027482830856057506
0.0010491340674734972
-0.003173729176469032
0.0009361649043293294
-0.003117770978723268
0.0008305994408547852
-0.00037189158699080466
0.0007269200175687071
-0.0027803319516665854
0.0006183732704308373
-0.003092677732106799
0.000496555289708026
-0.0029328509356863633
0.00034933682530993596
0.0006832444187393678
0.00017584327274833828
-0.0027926577837639895
-1.274254050816911e-05
-0.0030166146404667304
-0.000207654228564781
-0.0028245608816387783
-0.0004128292318581387
0.002207868801156889
-0.0006311478533188691
-0.0027943628889923098
-0.0007959610135654477
-0.0031233727029208774
-0.0009228421523665333
-0.0033148904293864075
-0.0010781081125070706
0.0006850785409075986
-0.0012684273762025603
-0.0031785194489197116
-0.0014683084223470681
-0.002895563423164388
-0.0016674070752285173
-0.003325550309886321
-0.0018620838006562657
-0.0003219003682156242
-0.0020533656483839205
-0.003653040043723653
-0.002242259139795327
-0.002923558565561663
-0.002426033111910863
-0.0037500331560604465
-0.0026004375664645976
0.0006591600085222809
-0.002763143666310347
-0.0033634850513329854
-0.0029155153170710543
-0.0028712674048797958
-0.0030635107958246217
-0.0032228756977494503
-0.003209662549367105
0.0032028195957053175
-0.003352125093518179
-0.003242453926777352
-0.0034892132117068666
-0.0030352693413056675
-0.00361806351220448
-0.003151206994438766
-0.0037368803051982136
0.0002712367769641635
-0.003843839493625144
-0.0033774018902291624
-0.0039380027656452056
-0.002989606176962318
-0.004020384385501877
-0.0036214028808345604
-0.004097220663147485
-0.0025926366818096016
-0.004176705950757094
-0.0037076505401765483
-0.004265030739773745
-0.0028668550635847284
-0.004360939418054868
-0.0039348477188885875
-0.004454851994827285
0.0007786933540899252
-0.00454019694039701
-0.0040495241279262595
-0.004613638996421473
-0.0027017298799195174
-0.00467594752891994
-0.0040891574488193735
-0.0047245207791249905
0.0013264517616088769
-0.004759957490234706
-0.0037961399178890803
-0.004793839612838292
-0.0028570047498001124
-0.00484368669151454
-0.0035109990224776776
-0.004919684040632224
0.00029197267104878977
-0.0050012815800286456
-0.003573622339761506
-0.00506737243838135
-0.0024431786348743023
-0.005104280325147307
-0.003967849551511957
-0.005126073951939629
-0.0002175471548259197
-0.005133899540776094
-0.003882191151271276
-0.005121200594944583
-0.0022937238521868737
-0.00509335261277511
-0.0040383810027838215
-0.005081228425794787
0.00010552280356529624
-0.005128809809391656
-0.004155651944978297
-0.005210568458224811
-0.0027958520122192227
-0.005290210012702267
-0.00423017588898175
-0.005328687200106015
0.002129008945814052
-0.00532438172121197
-0.004294603214300583
-0.005285654484015785
-0.002781283564152099
-0.005220656089983897
-0.004348348344411739
-0.005131563936163301
0.0005617446952883958
-0.0051408104275722415
-0.004131339557873758
-0.005244544333725135
-0.0026731305850190372
-0.005320554267878397
-0.004122846897558167
-0.005322199818896899
-0.0001332443134663864
-0.005310191513582916
-0.004345580862614008
-0.005290926543037438
-0.0025482378539451772
-0.005247087765975769
-0.00428759616007444
-0.005145724569419918
0.00012039178260426269
-0.005077675879378246
-0.004364666653026345
-0.0048333495139216455
-0.0023433894341330043
-0.004859115685657993
-0.004438879553098772
-0.0051386107100191555
0.004027359263219596
-0.005254626834858821
-0.004481767097906424
-0.005251421655877019
-0.00205963830606164
-0.005205226215056995
-0.00448442203803834
-0.005093328507104203
-0.0005629921062422326
-0.004907354663652474
-0.004439703734160652
-0.004891641354059719
-0.002266696306068883
-0.004631731526436243
-0.004392186397939715
-0.004640532379989965
-4.664490227309676e-05
-0.004597397125364325
-0.00435575388177784
-0.004824006292479584
-0.0019307088571550004
-0.004992562637771967
-0.004404828216113082
-0.004933591185598141
-0.002709905395697857
-0.004887466721026219
-0.004444104729459322
-0.0048237187830626705
-0.002031009020272108
-0.0047717004652482525
-0.004480117303245856
-0.004494602006541575
0.0019239903370524211
-0.004516654343338948
-0.0045042133351606475
-0.0044033974477114355
-0.0018252855399451442
-0.004542412812511952
-0.00452130111895404
-0.004435827032135734
-6.728055653193869e-05
-0.004610808117844327
-0.004521310521264097
-0.004699000797058789
-0.002327199099831823
-0.004676085477782474
-0.004487107804166406
-0.004870129035144353
6.171442503161533e-05
-0.0044087858322414
-0.00444746385034401
-0.0045440337251526795
-0.0024106304146749888
-0.004208840247098098
-0.004400822591321157
-0.00442366075571027
0.0027553914208349583
-0.004114287793019654
-0.004372938251648379
-0.004122788456908164
-0.0023399340202189794
-0.003971481647224511
-0.004353086356486571
-0.004253345472590001
0.0032390214179326246
-0.004186997058902466
-0.004335630169978255
-0.004656964326924432
-0.0018450263461507323
-0.00458190782027486
-0.004311569791761384
-0.004877197869663406
0.00015188473767661513
-0.004713637740514069
-0.004278105274706581
-0.004949061794527603
-0.0018775503079451073
-0.004702393433578374
-0.0042334114987652854
-0.004931278675684605
-8.592327257037728e-05
-0.004690686615296453
-0.004171641462891542
-0.004943043938554741
-0.0013889556525615734
-0.004992102854729038
-0.004103618990167345
-0.0050353878567347046
-0.0025568425752584166
-0.005253134047729889
-0.004030674908627025
-0.005309914444650884
-0.0013378652821499231
-0.005882423717530682
-0.00396074832135165
-0.005875122975871744
0.002199426022022615
-0.006312803333368083
-0.0038933211028264
-0.006151426784239186
-0.0013293718455623423
-0.006582071045705843
-0.0038289754555901486
-0.006308117297893543
2.1732634872039063e-05
-0.00669237450462462
-0.0037624478435265255
-0.006540049707276166
-0.0014053661307226342
-0.006914295928588832
-0.0036869992861293804
-0.007068773511080085
0.00019477415864533595
-0.0071898680415085165
-0.0035988838399138535
-0.007322245771791469
-0.001596031348735689
-0.007784269267792218
-0.003496066229531335
-0.008087029217588155
-0.0003136779368004858
-0.008231503904607935
-0.003381851950103311
-0.008339074129244978
-0.0017045859908670974
-0.008951304537148427
-0.0032579924357501937
-0.008640287901386021
0.007426222223741581
-0.008621046747104108
-0.0031271574445787334
-0.00869751796411217
-0.00226489488424463
-0.008634249816814564
-0.002990605180196885
-0.008410447176490352
-9.844431706536188e-05
-0.007960847334449515
-0.0028512487082331937
-0.0075251866432277485
-0.0013692385261384352
-0.00712105752315929
-0.0027076350529121607
-0.006788257694869229
0.0002435199474553684
-0.006590568739120152
-0.0025546189084146467
-0.006156388407272848
-0.0011526835672104132
-0.006278804169805823
-0.0023891816740756666
-0.005871125299482196
-0.00016028366832983909
-0.006199442893578951
-0.002213098900246794
-0.005846659682531451
-0.0010562744142885007
-0.005686466111744813
-0.0020302857031910394
-0.005508161244536884
0.002059060359467832
-0.004986639314691784
-0.0018439486008304058
-0.004905796496669706
-0.00100897274931845
-0.00467203187838579
-0.0016535465104892209
-0.004806137448928689
-0.0010942049766593165
-0.004271243290408203
-0.0014579840069638451
-0.004619171676720546
0.0020077331052649723
-0.004356293311669729
-0.0012606746380109568
-0.004653864774567527
0.000261615312621079
-0.00434237706676381
-0.0010718718695770747