# vtk DataFile Version 1.0
GRUMMP topologically 2D mesh
ASCII

DATASET UNSTRUCTURED_GRID
POINTS 6176 float
  1.0000000000000000   0.0000000000000000   0.0000000000000000
  0.9979736161243241   0.0002872981906159   0.0000000000000000
  0.9959038003591104   0.0005818082753016   0.0000000000000000
  0.9937894604158818   0.0008826109490225   0.0000000000000000
  0.9916311447855282   0.0011889740049165   0.0000000000000000
  0.9894256878168368   0.0015011074645448   0.0000000000000000
  0.9871732566523234   0.0018189104108560   0.0000000000000000
  0.9848739492731372   0.0021423104928037   0.0000000000000000
  0.9825241245750710   0.0024717658271048   0.0000000000000000
  0.9801244133260449   0.0028071825305054   0.0000000000000000
  0.9776732769852096   0.0031487906039340   0.0000000000000000
  0.9751690039483889   0.0034968357351786   0.0000000000000000
  0.9726117072730877   0.0038512643819321   0.0000000000000000
  0.9700001180350898   0.0042121148976419   0.0000000000000000
  0.9673332227148538   0.0045793859121594   0.0000000000000000
  0.9646079236541195   0.0049533708962095   0.0000000000000000
  0.9618249648196705   0.0053338679490647   0.0000000000000000
  0.9589807878895711   0.0057213439443832   0.0000000000000000
  0.9560767311296049   0.0061156062701256   0.0000000000000000
  0.9531120216710255   0.0065167463399167   0.0000000000000000
  0.9500819018783057   0.0069253778138591   0.0000000000000000
  0.9469876484068450   0.0073412143029309   0.0000000000000000
  0.9438286210030068   0.0077641908681895   0.0000000000000000
  0.9406001269296587   0.0081947829660712   0.0000000000000000
  0.9373041277084813   0.0086325757434285   0.0000000000000000
  0.9339368121646437   0.0090779560824189   0.0000000000000000
  0.9304976431076690   0.0095309377793780   0.0000000000000000
  0.9269838874379289   0.0099918267186165   0.0000000000000000
  0.9233965242394278   0.0104604374002928   0.0000000000000000
  0.9197323684717913   0.0109371203977286   0.0000000000000000
  0.9159901296799260   0.0114219111797446   0.0000000000000000
  0.9121662515702946   0.0119150917142392   0.0000000000000000
  0.9082612640703632   0.0124164093968364   0.0000000000000000
  0.9042711890176098   0.0129261849544228   0.0000000000000000
  0.9001985925103467   0.0134439182275261   0.0000000000000000
  0.8960367883853674   0.0139703538547480   0.0000000000000000
  0.8917881131106570   0.0145051006126241   0.0000000000000000
  0.8874465968544013   0.0150488093430172   0.0000000000000000
  0.8830132689405343   0.0156012428338051   0.0000000000000000
  0.8784843643309772   0.0161627200549514   0.0000000000000000
  0.8738585592690924   0.0167332093564690   0.0000000000000000
  0.8691331845657406   0.0173128340473851   0.0000000000000000
  0.8643080629784704   0.0179014022230632   0.0000000000000000
  0.8593790220315882   0.0184992057974382   0.0000000000000000
  0.8543443022105112   0.0191062525475961   0.0000000000000000
  0.8492020742372332   0.0197225542022908   0.0000000000000000
  0.8439504592998461   0.0203481184762133   0.0000000000000000
  0.8385847225217766   0.0209832807547837   0.0000000000000000
  0.8331043690503205   0.0216278714070098   0.0000000000000000
  0.8275075883744546   0.0222818740978654   0.0000000000000000
  0.8217896079901662   0.0229456038551552   0.0000000000000000
  0.8159499389768221   0.0236188617887649   0.0000000000000000
  0.8099850870934132   0.0243017702717010   0.0000000000000000
  0.8038929332928342   0.0249942623102002   0.0000000000000000
  0.7976697970229181   0.0256964297179088   0.0000000000000000
  0.7913134730328051   0.0264081777898121   0.0000000000000000
  0.7848218596203610   0.0271293903098903   0.0000000000000000
  0.7781898173908960   0.0278602762976724   0.0000000000000000
  0.7714169256365310   0.0286005013921829   0.0000000000000000
  0.7644979701754163   0.0293502351726533   0.0000000000000000
  0.7574308659438134   0.0301093068082177   0.0000000000000000
  0.7502135053150701   0.0308775557618342   0.0000000000000000
  0.7428404612557281   0.0316551512399728   0.0000000000000000
  0.7353096164115749   0.0324418730798164   0.0000000000000000
  0.7276172963491144   0.0332375368705936   0.0000000000000000
  0.7197598859172740   0.0340418579688506   0.0000000000000000
  0.7117355290536627   0.0348543282856948   0.0000000000000000
  0.7035389878799579   0.0356747811793425   0.0000000000000000
  0.6951650952820780   0.0365031090698871   0.0000000000000000
  0.6866122709923126   0.0373388258653197   0.0000000000000000
  0.6778754950330185   0.0381817369178559   0.0000000000000000
  0.6689534383202176   0.0390312029136988   0.0000000000000000
  0.6598376964403885   0.0398871771799410   0.0000000000000000
  0.6505290121117546   0.0407486821288951   0.0000000000000000
  0.6410191910005383   0.0416153892989160   0.0000000000000000
  0.6313056496470314   0.0424862165552765   0.0000000000000000
  0.6213823079172336   0.0433602824420315   0.0000000000000000
  0.6112489281649386   0.0442362457646169   0.0000000000000000
  0.6008963123926909   0.0451137308907019   0.0000000000000000
  0.5903211292528141   0.0459917803130241   0.0000000000000000
  0.5795184839365645   0.0468692540951747   0.0000000000000000
  0.5684857150099230   0.0477443424041717   0.0000000000000000
  0.5572148862675538   0.0486154402631608   0.0000000000000000
  0.5457024491672809   0.0494805599680832   0.0000000000000000
  0.5339780836677636   0.0503353194116202   0.0000000000000000
  0.5219860728183490   0.0511813660693644   0.0000000000000000
  0.5101253307512127   0.0519891081313360   0.0000000000000000
  0.4985043971600128   0.0527514649709832   0.0000000000000000
  0.4871181100865982   0.0534694955937708   0.0000000000000000
  0.4759663238182478   0.0541439373921026   0.0000000000000000
  0.4650424897306392   0.0547759224024376   0.0000000000000000
  0.4543414694194311   0.0553665338532900   0.0000000000000000
  0.4438615277983380   0.0559167464857066   0.0000000000000000
  0.4335966445555638   0.0564277439227250   0.0000000000000000
  0.4235422171719039   0.0569005367499369   0.0000000000000000
  0.4136931783754329   0.0573360485787389   0.0000000000000000
  0.4040479201781875   0.0577350333573017   0.0000000000000000
  0.3946007843384192   0.0580984587592611   0.0000000000000000
  0.3853459130056055   0.0584273588583778   0.0000000000000000
  0.3762828394437238   0.0587225582688298   0.0000000000000000
  0.3674052759622001   0.0589850521268143   0.0000000000000000
  0.3587104110044708   0.0592156767487264   0.0000000000000000
  0.3501952433465900   0.0594152538281565   0.0000000000000000
  0.3418548081050912   0.0595846279097528   0.0000000000000000
  0.3336858663230149   0.0597246577421592   0.0000000000000000
  0.3256868701986138   0.0598362486465025   0.0000000000000000
  0.3178507769372301   0.0599203474438374   0.0000000000000000
  0.3101776523444911   0.0599777679649948   0.0000000000000000
  0.3026620994593082   0.0600092896252224   0.0000000000000000
  0.2953022098091474   0.0600156089816429   0.0000000000000000
  0.2880942515540157   0.0599974067416477   0.0000000000000000
  0.2810344582773878   0.0599553507162620   0.0000000000000000
  0.2741224198462300   0.0598902308958287   0.0000000000000000
  0.2673508102792782   0.0598027829062179   0.0000000000000000
  0.2607208372897423   0.0596938009430880   0.0000000000000000
  0.2542268737219818   0.0595639532054747   0.0000000000000000
  0.2478699323930078   0.0594139942796022   0.0000000000000000
  0.2416426526986943   0.0592444560641495   0.0000000000000000
  0.2355443386744786   0.0590559928562533   0.0000000000000000
  0.2295742285057687   0.0588492600763349   0.0000000000000000
  0.2237267309732288   0.0586247739586633   0.0000000000000000
  0.2180011540540604   0.0583832555000465   0.0000000000000000
  0.2123936096745636   0.0581252700988444   0.0000000000000000
  0.2069018249031851   0.0578514118247249   0.0000000000000000
  0.2015265925874962   0.0575624139311738   0.0000000000000000
  0.1962639217171782   0.0572587327640815   0.0000000000000000
  0.1911098627978642   0.0569407701058159   0.0000000000000000
  0.1860635373512509   0.0566090833477142   0.0000000000000000
  0.1811225555455632   0.0562641183158228   0.0000000000000000
  0.1762831066659017   0.0559062017034564   0.0000000000000000
  0.1715472965099615   0.0555361405439852   0.0000000000000000
  0.1669099315072494   0.0551541804881659   0.0000000000000000
  0.1623702175183220   0.0547608759938091   0.0000000000000000
  0.1579259317985442   0.0543566416724963   0.0000000000000000
  0.1535748664842349   0.0539418626674859   0.0000000000000000
  0.1493147619729656   0.0535168899310313   0.0000000000000000
  0.1451447283274916   0.0530821904592715   0.0000000000000000
  0.1410625235604109   0.0526380756497570   0.0000000000000000
  0.1370659530359299   0.0521848322503466   0.0000000000000000
  0.1331567814638518   0.0517231967360234   0.0000000000000000
  0.1293276562313525   0.0512528455259629   0.0000000000000000
  0.1255804504092525   0.0507745502773552   0.0000000000000000
  0.1219131281255899   0.0502885988465475   0.0000000000000000
  0.1183237015509818   0.0497952534010120   0.0000000000000000
  0.1148102318092792   0.0492947513229479   0.0000000000000000
  0.1113720175725520   0.0487874812015910   0.0000000000000000
  0.1080070759532941   0.0482736140267307   0.0000000000000000
  0.1047146335147149   0.0477534816268928   0.0000000000000000
  0.1014927513745349   0.0472272179600503   0.0000000000000000
  0.0983395479756496   0.0466949369878610   0.0000000000000000
  0.0952554508934213   0.0461571322873805   0.0000000000000000
  0.0922363866432952   0.0456135046927440   0.0000000000000000
  0.0892828700951544   0.0450645654218522   0.0000000000000000
  0.0863942718297865   0.0445106297655928   0.0000000000000000
  0.0835678320075330   0.0439515803137779   0.0000000000000000
  0.0808019575920066   0.0433874837688950   0.0000000000000000
  0.0780971710598979   0.0428188278852694   0.0000000000000000
[...]
POINT_DATA 6176
SCALARS continuity float
LOOKUP_TABLE default
0.001019620454656442
-0.001963355069838878
-0.0021857966390956
-0.0018302793427605658
-0.002000488817187836
-0.0020939148648588157
-0.0021228709682548164
-0.0021947178564093667
-0.002238957097574513
-0.0022557123986215806
-0.0022550901114208066
-0.002262262892385182
-0.002226958800989379
-0.002204408348171467
-0.0021719437278348917
-0.002148784474020914
-0.0021217948895593686
-0.0020953276626430066
-0.002056828848873312
-0.0020224097016878846
-0.0019709101603018167
-0.0019344706368445979
-0.0019120661031687457
-0.001904625805729001
-0.0018954700989916263
-0.0018682776396650232
-0.001826901161927837
-0.0017790315935734843
-0.001735428138730201
-0.0016943120884847919
-0.0016529506545570546
-0.0016140776882754035
-0.0015799946063044367
-0.0015521719013660473
-0.001516940912530046
-0.0014645934166714505
-0.0013994280536467085
-0.001329392602845013
-0.0012604029558845075
-0.0011944752207799334
-0.0011302119091437192
-0.0010716788359148445
-0.0010178992347963606
-0.0009464102376402148
-0.0008498793436496865
-0.0007401924561994422
-0.0006325846823536381
-0.0005323585352307662
-0.0004384540436119109
-0.00036048431357046614
-0.0002976385697194899
-0.00022968355621793386
-0.000133382395578502
-1.3179621101956618e-05
0.00011030040108614909
0.00022528230333146947
0.0003323915962097769
0.0004228581749748321
0.0004909470953922346
0.0005508372033454578
0.0006257319816824595
0.0007306246408315791
0.0008449959696982695
0.0009523172558241913
0.001044681947452363
0.001113251807652352
0.0011569586574757405
0.0011791824830882892
0.0011822853390123398
0.001160101162995606
0.0011143965714205668
0.0010636828672294708
0.0010256971416308376
0.0009961713328849855
0.0009452254875074225
0.000847601204059992
0.0007093081040495261
0.0005557291353705232
0.00040912510292642404
0.00028787270220473284
0.0002081106304355748
0.00015325777941618712
9.048075961536585e-05
2.742257044550318e-05
-2.748186852024874e-05
-0.00025827545321568116
-0.0005189605448077906
-0.0005652422029325791
-0.0005494799765418996
-0.0005049585006236771
-0.0004469951251534322
-0.0003773510087854003
-0.0002736392141387306
-0.00012376284093505165
6.443901940974216e-05
0.00026857176402586645
0.00047690765394999875
0.00068514154374335
0.0008889120114724826
0.0010581365593524288
0.0011645212568116268
0.0012037672036303133
0.0011914630506519328
0.0011188693365311879
0.0009655188333312156
0.0007278445623982081
0.00042795451082544567
0.00010460279028438955
-0.000234533665924321
-0.0006095949252950705
-0.001024610186534785
-0.001448905479981905
-0.0018530163284016564
-0.002239892258602342
-0.002612773419369672
-0.002964273860767257
-0.0032612204346258054
-0.003466443184213284
-0.003598364380643189
-0.003731172023822945
-0.0039024693757497716
-0.004097431586366661
-0.004288251399636658
-0.004472295679931732
-0.004668091086490824
-0.004893906718325769
-0.00507623672050696
-0.005122779653213937
-0.005054828413447487
-0.005010808029712236
-0.005059335685474442
-0.005156927660773293
-0.005261993459121554
-0.005401292345842207
-0.005583336506952041
-0.005660600912567277
-0.005527440154889848
-0.005432488095013286
-0.005469670334588754
-0.005496070658785272
-0.005508876380465166
-0.005530626043651786
-0.005572314729964051
-0.005685372473212033
-0.006045834679774923
-0.006348827948935683
-0.005921451670373407
-0.005528402996572917
-0.005533882102151763
-0.005597120131142515
-0.005667457490191083
-0.005839047968957299
-0.006090132635984808
-0.007400610910061662
-0.006141041381990023
-0.006104803982689098
-0.005751279015580251
-0.0057794114316437545
-0.005666944310927466
-0.0057327161919031675
-0.0055941135988776
-0.005601499164479355
-0.007214075928673118
-0.0058025414692837035
-0.005564390196605212
-0.005516599007051267
-0.00547817163528688
-0.005288112580913001
-0.005300148962067758
-0.0052272732126316885
-0.004386966313010442
-0.005296439541552153
-0.005261914145795139
-0.005239245818405369
-0.005074035255820889
-0.005058570545547437
-0.004920256079747902
-0.006892805302858554
-0.004093500459463434
-0.006619165655392496
-0.0038198776728067055
-0.006383791266689627
-0.003232300485952875
-0.006229202226424685
-0.0032379145386365908
-0.006296899342128401
-0.003349848423659008
-0.006483701569995506
-0.003498258924271094
-0.006857620320771925
-0.002838687476971166
-0.0034323539644548415
-0.003590408266599008
-0.0030601681470567815
-0.0027957800204558574
-0.0026198050973435367
-0.002813266976414876
-0.0025560961603036075
-0.002762124298128726
-0.0027905265701985158
-0.0031646213678106733
-0.0028641094974349727
-0.002207434694470144
-0.001961021826286116
-0.0022995528605490164
-0.0022395508629756903
-0.0010869671905997269
-0.0013676799316829497
-0.001891590204355662
-0.002030106134565011
-0.0012909149859508856
-0.0016268385875783558
-0.0013693691575354747
-0.0006506537117332948
0.00016692191977112956
0.0007574884066566981
0.0003253662507565002
0.00023494077957113908
0.0005491229409537817
0.00148934121862451
0.0012659477276124344
0.0005368650938185203
0.0002602903082450799
0.0005635792302316581
0.0004484868377115438
0.0006745299660002399
0.0005353033606526756
-7.408671900599559e-05
3.1304580012357923e-06
-0.0008689408741658817
0.00020365535727855216
-0.0005324051268390238
0.00023516022024273284
-0.002414886990305363
-6.259418114092423e-05
-0.0027342706015332763
-0.0006160313294885939
-0.003192452735181118
-0.0010321998958959687
-0.0036291389576446954
-0.0015205418825193252
-0.004137333478343691
-0.0017989153803948004
-0.004531613284095681
-0.0021871450692372723
-0.004943810529024203
-0.002588802441761939
-0.005414929583716863
-0.0034953534752338203
-0.0035475550274471726
-0.0034112240092738218
-0.0041175931457182605
-0.0028354012776440492
-0.0034127699131185248
-0.0033405915476371144
-0.0032684845825674672
-0.003224191100998626
-0.003187347905794007
-0.0032390139972640897
-0.0036171921232435026
-0.005328602783502594
-0.003989827856328817
-0.004256822909936123
-0.004418834439246479
-0.0042594356037552366
-0.004290024196270638
-0.004279253498873045
-0.004599904689219708
-0.004209387721357616
-0.004108889924856426
-0.005088315603547415
-0.0036143328179491594
-0.0034286568357461598
-0.0034596900809261717
-0.0034363066266956182
-0.003817028220303504
-0.004359981210278069
-0.00426714591107961
-0.003761833364082933
-0.0033015778263613613
-0.0030549789560356455
-0.002917396243237786
-0.002832376861907431
-0.002773589128522358
-0.0026946999870640993
-0.0026878030245067776
-0.002929197508048248
-0.0031694042172883217
-0.0031564993278378074
-0.0028084961807222702
-0.0024233369175845846
-0.0021721366254714124
-0.002013687387250955
-0.0019178881894319313
-0.001930127644546767
-0.0020451194907082117
-0.002170781021410843
-0.002139222596445272
-0.0019699186141326802
-0.0018044117717567782
-0.0016958722214744598
-0.0016207309209122606
-0.001567579403367753
-0.0015460510017170689
-0.0015595882399327778
-0.0015762793469423677
-0.0015623535863117455
-0.0015314347335477164
-0.0015132346437220843
-0.0015180413893337483
-0.0015548722122534107
-0.0016283265635041043
-0.001733902808328083
-0.0018685646797275783
-0.0020353261683325294
-0.002239982056534684
-0.0024674801283832777
-0.0026928787657326597
-0.002897464077350014
-0.00307918057224106
-0.0032241507399408177
-0.00331623401247851
-0.003343373299177179
-0.0033134061012006703
-0.003231195842892301
-0.0030860859299891795
-0.00286250523460779
-0.0025648131375597847
-0.002212111359458629
-0.0018214259249553812
-0.0013991161300171183
-0.0009349441378676115
-0.000419893034959306
0.00014801958701952565
0.0007346846705922263
0.0013027174510970064
0.0018414927842080686
0.0024560480417272755
0.0033867756557461257
0.003893439426310776
0.004118935091230581
0.0043621325844488195
0.00458017240025016
0.0047282112439843114
0.004838006131693062
0.004960050611622698
0.005102333795401781
0.005246492477305964
0.005364942689243221
0.005407092397633631
0.005334077797913601
0.005186399250835931
0.005038250082681785
0.004917900302571563
0.004799184125190091
0.004671833931235962
0.004548243086043792
0.004435884330958251
0.0043122755157251865
0.004154447991578558
0.003978948085366767
0.003814387954118644
0.0036770414966496253
0.003571890946166254
0.0034775426088349635
0.003366880574519051
0.0032139092519352305
0.003018984024860086
0.0028009663296527437
0.0025739824322251422
0.002355469110741955
0.002168867534927217
0.0020115223325861266
0.0018629322808233636
0.0017173235725701727
0.0015738848160466623
0.0014279857140260797
0.0012842614145795884
0.0011445030991980834
0.0010267217024746208
0.0009622701543367193
0.000937705281173116
0.0009297200364694994
0.0009299787566934059
0.0009338051413832197
0.0009386993975598028
0.0009411103677421563
0.0009440388627740553
0.0009597646668172194
0.0009972024482500694
0.0010596606311543144
0.001142353079638302
0.0012289468033165368
0.0013195606243313533
0.0014080907915060058
0.0014880101670755612
0.0015586520081358793
0.0016260581084745198
0.0017098127199956005
0.001827797045843289
0.001901835201851113
0.0019376250737036603
0.0019436761416042182
0.0019161588838457091
0.001852123106292412
0.0017235361032963555
0.0016747005724722624
0.001606388790718544
0.0015329817979603795
0.0013977676519300898
0.0012444076132061019
0.0010807262834794924
0.0008935747446830872
0.0007503228554703995
0.00065448851924906
0.0005771970086481514
0.0005206309354507415
0.00047283754400381854
0.0003360786949295269
0.00017071093512687632
-0.00017102047528748282
-0.000404595842671313
0.00023357676852315363
-0.001179153642080473
-0.0012552529403073766
-0.0018596218722536852
-0.0020971803050057157
-0.0026582188086300904
-0.0021315399577090033
-0.0014068687029616387
-0.0017225324477536002
0.0006781974256852751
-0.0020105156949031156
-0.00614417509278363
-0.002022330524439142
0.0018420324952251213
-0.0020874275410467857
-0.007536185685017523
-0.0021315108714976905
0.00030636057721300253
-0.0021584813012282514
-0.006909393013352285
-0.002196424976007266
-0.003136720849031324
-0.0022483524639263204
-0.007023397221584138
-0.0022703067903917106
-6.222971283974027e-05
-0.002283561011750454
-0.00547819716254739
-0.0022649272509559807
0.0004072149558821617
-0.002243210633902492
-0.007139841431668794
-0.00221797256562787
-0.00040993618808271375
-0.0021759522735118877
-0.004235340593886192
-0.002153017202442555
-0.004292407262571328
-0.0021310453215374315
-0.0064368949424551
-0.0021041025432016938
-0.0007583568573103515
-0.002069489240088289
-0.0033351786194590937
-0.002010266883543669
-0.0014509864909593986
-0.0019645250700633865
-0.006402453920593013
-0.0019295971795470867
-0.001166161299498627
-0.0019108513661495819
-0.003818453492856231
-0.0018985960829394817
-0.004659867291392157
-0.001880681733599374
-0.005485948810677173
-0.0018464172764230545
-0.0015910102468759345
-0.001804569313382108
-0.004263499585192792
-0.0017558939401298016
0.00045800426067675544
-0.0017106954081530954
-0.006565603520811982
-0.0016688620527913903
-0.002012210301173077
-0.001627959719090702
-0.00424921728252016
-0.001589071887279156
-0.0041917403223263
-0.0015592681388194249
-0.005653442171109684
-0.0015307076597986518
-0.0023991216997057033
-0.0014901911284944294
-0.0036107307031913475
-0.0014317420769350238
0.0006221962541671156
-0.001366527161618374
-0.005217286690151139
-0.0012957837929100568
-0.002733654192977086
-0.0012281255476547803
-0.0034281554397790955
-0.0011610782071170358
-0.003990320757072665
-0.0011001603638000192
-0.005012543458477566
-0.0010473503049344027
-0.0030283850198127077
-0.0009886165234329032
-0.0032193272729984326
-0.0009107677563219157
0.0005376371649376893
-0.0008098620157033538
-0.0050769193010994145
-0.0006976833537590916
-0.003237854987442504
-0.0005911038778121172
-0.003281255135516999
-0.0004919677339591078
-0.004263024924852641
-0.0004030746659786977
-0.005034420222086533
-0.00033199643547496743
-0.0033757104964148976
-0.0002697130753333282
-0.004656530610536896
-0.0001943014054565305
-0.0017208198316473783
-8.89755492727256e-05
-0.005793564770415023
3.40876042557602e-05
-0.003314108351893323
0.00015484925442107975
-0.004682206884822149
0.000267685422765477
-0.005436893757437281
0.00037119821640289093
-0.006039601252015236
0.00045539466033944005
-0.0034332575825327012
0.000519319583100441
-0.00440003785158155
0.0005852920717439459
0.00048122807956912315
0.0006724359100171069
-0.005862644716585314
0.0007825319942714275
-0.003602019699767272
0.0008967508650592311
-0.004803528873136421
0.001004592201665398
-0.00534844448139051
0.0010954423237382598
-0.005774946127568937
0.0011610124676527174
-0.00384123146767711
0.0012036255441038553
-0.004995156114870708
0.0012251703448046354
0.004614900839874921
0.001223882629594082
-0.006144248791414876
0.0011980901351420123
-0.00403548086946248
0.0011559104700827108
-0.0044214462601539686
0.0011147256666686122
-0.00577794390398913
0.0010849275212152232
-0.0052274831814090325
0.0010546932847902975
-0.0041901235532826086
0.0009947791192307194
-0.004223003154493248
0.0008861235509910046
0.00028063382326794944
0.0007456652504003793
-0.005403264128759076
0.0005962447483675057
-0.004352674066582491
0.0004593094576044453
-0.004699315005395549
0.0003559657176423614
-0.00523090136844643
0.00028932303954813654
-0.005496344879065143
0.0002357783549754779
-0.0044422710303355295
0.00016709047971975074
-0.005131662697655166
0.0001032510514673287
-0.002158650396870484
5.3825606411523204e-05
-0.005344224011168275
-0.00016997254986962136
-0.0044619887196357825
-0.00044228974488595956
-0.004750061076919736
-0.0005105816918654488
-0.005601929639054698
-0.0005043668503810104
-0.00466216550042778
-0.0004536202362736186
-0.004469117271077746
-0.0003800751358764404
-0.004867576653335817
-0.00030005608516665383
-3.1090617929109576e-05
-0.00019559991259034595
-0.004632857955896316
-4.9634177205229134e-05
-0.004312172131439877
0.00013880886001886824
-0.004548742119547864
0.00034849079435866296
-0.006453558866801446
0.0005637471724452888
-0.004821724881126148
0.0007774049757178042
-0.004250651768552701
0.0009923277481247656
-0.005664744683385031
0.001187685679804966
0.0005308476793354565
0.0013271590745240808
-0.0055447554561483745
0.001392406218501611
-0.004202715517795775
0.0013917890935787023
-0.005613041573985395
0.0013312696842649953
-0.004900747380282181
0.0011977405074807626
-0.005320557196260957
0.0009820847151953468
-0.004336187282253305
0.0007015001647454254
-0.005120166130034456
0.0003874466976650782
0.0004681497384452868
6.581366077774867e-05
-0.00489186612799821
-0.0002745019219635524
-0.004459707976172858
-0.0006498527501998964
-0.0046611563548552
-0.001056921095956897
-0.00642546214981397
-0.0014565627696409593
-0.004565159250966533
-0.0018382612395354294
-0.004642090346635062
-0.002196897007725487
-0.004363231447109253
-0.002531699240826098
0.0002520532248830503
-0.0028180149547736752
-0.004593231265719207
-0.0030206069571700515
-0.004745145620682225
-0.003137266965406126
-0.005030677433215942
-0.0032176612566674066
-0.005385229735829316
-0.0033396218088220363
-0.005277259471630504
-0.0035129579346931685
-0.0049383794517937375
-0.0036984016474762385
-0.004998735293540873
-0.0038713244371675853
-0.0004248326449649188
-0.004048160794251586
-0.004800107888266894
-0.004234233115749431
-0.004663200400327836
-0.00438407496968925
-0.004645967805081635
-0.004432779988820797
-0.0051244466168159485
-0.004344605768426213
-0.004537768221869045
-0.004247141491604266
-0.004404335583840397
-0.004231428966177518
-0.004521216948457388
-0.004297538460365271
-0.0014871219060735882
-0.004407248613610853
-0.004463202542314825
-0.004546475695410021
-0.00454009751975383
-0.0046069298367492064
-0.0043317779302880334
-0.0046621435813178685
-0.006049615825179061
-0.0045610918829534965
-0.004361485262296472
-0.0044076545943776
-0.0046506041022034445
-0.004400129913427005
-0.004683828565249204
-0.004439054892177311
-0.0007906977071603564
-0.004444649638836603
-0.004573102255004317
-0.004445116913749813
-0.004655863270618058
-0.0045046785613033595
-0.004552503836037845
-0.004564889623532179
-0.005195423278559922
-0.004774678749056281
-0.004486881755865822
-0.005007089448735405
-0.004739089692580268
-0.004639793103063393
-0.004325381002856154
-0.00435709901585688
0.0021127324072112027
-0.004237404174344868
-0.004216933249091435
-0.004310483133506123
-0.005080041640785679
-0.004407844388004838
-0.0040723684877333926
-0.004523658750769898
-0.00438118506313541
-0.004749046656590613
-0.004054605847810638
-0.0047359131715550154
-0.005182346595524303
-0.004742725447544716
-0.004123858781595823
-0.004626187330302412
-0.0011493038519823915
-0.004655023704893413
-0.004337125992143812
-0.0042992915503592445
-0.005307485364975558
-0.004149320799732732
-0.004284828633882549
-0.004138789709874149
-0.002975373800014139
-0.00409422451778001
-0.0041714834790159356
-0.004068330304599167
-0.0053018163577041285
-0.00428682431721687
-0.003982886470459187
-0.004213652954452126
-0.001574503725209267
-0.003908401151574643
-0.0038020970527149066
-0.003972677736039114
-0.005654906436046632
-0.003637522949766344
-0.0036126865366916047
-0.0037220552781878097
-0.0055210756633682825
-0.0034306930081137786
-0.003410501631862129
-0.003364334475457161
-0.004664967251610077
-0.0033779232437373655
-0.0032311434555269236
-0.003463375462549484
-0.001607006254809559
-0.003639712438547463
-0.003106620261338453
-0.003385768904739311
-0.004895904180590391
-0.0033326221076822545
-0.0030368739482897734
-0.0031753799491162893
-0.0031193677679188124
-0.0031552324031077932
-0.002927664405243623
-0.003391614700700228
-0.0047974163647014085
-0.0028624929061928043
-0.0027189843961897596
-0.00295256665781575
6.88505267181537e-05
-0.002339571138976468
-0.0024267087068311844
-0.0022490224654434605
-0.00538567084807019
-0.0017498081190254003
-0.0020883716804439047
-0.0021992903936359806
-0.006463644790438399
-0.0018634378741186576
-0.0017227203436425214
-0.0022446808750401976
-0.005535774089382738
-0.0020769994781348264
-0.0013315215401007766
-0.002406487107033396
-0.0019035727022581358
-0.0023188880634256357
-0.0009318343123385704
-0.002349160362110809
-0.005867408280652996
-0.0020979623977156036
-0.0005277491019564382
-0.002442047907137113
-0.00010474883731329823
-0.0021760311031025718
-0.00016000816884207477
-0.0023764325821259737
-0.006064362603640947
-0.0016193998964190877
0.00018775918949760935
-0.00249824985970258
-0.0013337554106633985
-0.0022321229717161186
0.0005194303829982038
-0.0034055039605777725
-0.006410662542671519
-0.003362729667126231
0.0008470006099396055
-0.0050958346447670935
-0.0053737697249223795
-0.005427443793825943
0.001140687787668105
-0.006733683307100836
-0.00691854222838291
-0.006863372620553584
0.0013631596657996373
-0.006897966975397609
-0.002242576944334675
-0.006810720688723701
0.0014991790124386944
-0.006274151723479646
-0.005581571388436029
-0.0065138484154141215
0.001554411525943006
-0.0063235964929727745
-0.004602477901661441
-0.006067237587078315
0.0015434434370532669
-0.005835896013691487
-0.005532167931310439
-0.0048012868323355
0.001464657906665344
-0.004220592928975875
0.005340434263285784
-0.0032729951265467044
0.0013215388728254423
-0.0021529568295346724
-0.004784664129034567
-0.0011094090188310808
0.0011323320161293888
-0.0001498799611381319
-0.005244715694105471
0.00042746747774523113
0.0009276211337243493
0.0006329606613671396
-0.005822773761349226
0.0008211032344615761
0.0007164221113415145
0.00117264427295611
-0.0025961583079845475
0.001406898344980072
0.0004956574270738452
0.0010804489019762722
-0.005568482212244726
0.0016167884128210153
0.0002745531638301876
0.0011610707530846308
-0.005283226440957053
0.0020055644010897374
7.464676348182282e-05
0.0015946084097428724
-0.00570494898834609
0.0017143689314682165
-8.542966271766258e-05
0.0017326737859113684
-0.0008466881901700426
0.0012986058688336472
-0.00020042538024739383
0.0007901404727085234
-0.005934893991763474
0.0012388279792689227
-0.00028679660337112994
0.0012102706583251958
-0.0039512501796572005
0.000849678831002429
-0.00035644905471574447
0.0009097863489641567