# vtk DataFile Version 1.0
GRUMMP topologically 2D mesh
ASCII

DATASET UNSTRUCTURED_GRID
POINTS 6176 float
  1.0000000000000000   0.0000000000000000   0.0000000000000000
  0.9979736161243241   0.0002872981906159   0.0000000000000000
  0.9959038003591104   0.0005818082753016   0.0000000000000000
  0.9937894604158818   0.0008826109490225   0.0000000000000000
  0.9916311447855282   0.0011889740049165   0.0000000000000000
  0.9894256878168368   0.0015011074645448   0.0000000000000000
  0.9871732566523234   0.0018189104108560   0.0000000000000000
  0.9848739492731372   0.0021423104928037   0.0000000000000000
  0.9825241245750710   0.0024717658271048   0.0000000000000000
  0.9801244133260449   0.0028071825305054   0.0000000000000000
  0.9776732769852096   0.0031487906039340   0.0000000000000000
  0.9751690039483889   0.0034968357351786   0.0000000000000000
  0.9726117072730877   0.0038512643819321   0.0000000000000000
  0.9700001180350898   0.0042121148976419   0.0000000000000000
  0.9673332227148538   0.0045793859121594   0.0000000000000000
  0.9646079236541195   0.0049533708962095   0.0000000000000000
  0.9618249648196705   0.0053338679490647   0.0000000000000000
  0.9589807878895711   0.0057213439443832   0.0000000000000000
  0.9560767311296049   0.0061156062701256   0.0000000000000000
  0.9531120216710255   0.0065167463399167   0.0000000000000000
  0.9500819018783057   0.0069253778138591   0.0000000000000000
  0.9469876484068450   0.0073412143029309   0.0000000000000000
  0.9438286210030068   0.0077641908681895   0.0000000000000000
  0.9406001269296587   0.0081947829660712   0.0000000000000000
  0.9373041277084813   0.0086325757434285   0.0000000000000000
  0.9339368121646437   0.0090779560824189   0.0000000000000000
  0.9304976431076690   0.0095309377793780   0.0000000000000000
  0.9269838874379289   0.0099918267186165   0.0000000000000000
  0.9233965242394278   0.0104604374002928   0.0000000000000000
  0.9197323684717913   0.0109371203977286   0.0000000000000000
  0.9159901296799260   0.0114219111797446   0.0000000000000000
  0.9121662515702946   0.0119150917142392   0.0000000000000000
  0.9082612640703632   0.0124164093968364   0.0000000000000000
  0.9042711890176098   0.0129261849544228   0.0000000000000000
  0.9001985925103467   0.0134439182275261   0.0000000000000000
  0.8960367883853674   0.0139703538547480   0.0000000000000000
  0.8917881131106570   0.0145051006126241   0.0000000000000000
  0.8874465968544013   0.0150488093430172   0.0000000000000000
  0.8830132689405343   0.0156012428338051   0.0000000000000000
  0.8784843643309772   0.0161627200549514   0.0000000000000000
  0.8738585592690924   0.0167332093564690   0.0000000000000000
  0.8691331845657406   0.0173128340473851   0.0000000000000000
  0.8643080629784704   0.0179014022230632   0.0000000000000000
  0.8593790220315882   0.0184992057974382   0.0000000000000000
  0.8543443022105112   0.0191062525475961   0.0000000000000000
  0.8492020742372332   0.0197225542022908   0.0000000000000000
  0.8439504592998461   0.0203481184762133   0.0000000000000000
  0.8385847225217766   0.0209832807547837   0.0000000000000000
  0.8331043690503205   0.0216278714070098   0.0000000000000000
  0.8275075883744546   0.0222818740978654   0.0000000000000000
  0.8217896079901662   0.0229456038551552   0.0000000000000000
  0.8159499389768221   0.0236188617887649   0.0000000000000000
  0.8099850870934132   0.0243017702717010   0.0000000000000000
  0.8038929332928342   0.0249942623102002   0.0000000000000000
  0.7976697970229181   0.0256964297179088   0.0000000000000000
  0.7913134730328051   0.0264081777898121   0.0000000000000000
  0.7848218596203610   0.0271293903098903   0.0000000000000000
  0.7781898173908960   0.0278602762976724   0.0000000000000000
  0.7714169256365310   0.0286005013921829   0.0000000000000000
  0.7644979701754163   0.0293502351726533   0.0000000000000000
  0.7574308659438134   0.0301093068082177   0.0000000000000000
  0.7502135053150701   0.0308775557618342   0.0000000000000000
  0.7428404612557281   0.0316551512399728   0.0000000000000000
  0.7353096164115749   0.0324418730798164   0.0000000000000000
  0.7276172963491144   0.0332375368705936   0.0000000000000000
  0.7197598859172740   0.0340418579688506   0.0000000000000000
  0.7117355290536627   0.0348543282856948   0.0000000000000000
  0.7035389878799579   0.0356747811793425   0.0000000000000000
  0.6951650952820780   0.0365031090698871   0.0000000000000000
  0.6866122709923126   0.0373388258653197   0.0000000000000000
  0.6778754950330185   0.0381817369178559   0.0000000000000000
  0.6689534383202176   0.0390312029136988   0.0000000000000000
  0.6598376964403885   0.0398871771799410   0.0000000000000000
  0.6505290121117546   0.0407486821288951   0.0000000000000000
  0.6410191910005383   0.0416153892989160   0.0000000000000000
  0.6313056496470314   0.0424862165552765   0.0000000000000000
  0.6213823079172336   0.0433602824420315   0.0000000000000000
  0.6112489281649386   0.0442362457646169   0.0000000000000000
  0.6008963123926909   0.0451137308907019   0.0000000000000000
  0.5903211292528141   0.0459917803130241   0.0000000000000000
  0.5795184839365645   0.0468692540951747   0.0000000000000000
  0.5684857150099230   0.0477443424041717   0.0000000000000000
  0.5572148862675538   0.0486154402631608   0.0000000000000000
  0.5457024491672809   0.0494805599680832   0.0000000000000000
  0.5339780836677636   0.0503353194116202   0.0000000000000000
  0.5219860728183490   0.0511813660693644   0.0000000000000000
  0.5101253307512127   0.0519891081313360   0.0000000000000000
  0.4985043971600128   0.0527514649709832   0.0000000000000000
  0.4871181100865982   0.0534694955937708   0.0000000000000000
  0.4759663238182478   0.0541439373921026   0.0000000000000000
  0.4650424897306392   0.0547759224024376   0.0000000000000000
  0.4543414694194311   0.0553665338532900   0.0000000000000000
  0.4438615277983380   0.0559167464857066   0.0000000000000000
  0.4335966445555638   0.0564277439227250   0.0000000000000000
  0.4235422171719039   0.0569005367499369   0.0000000000000000
  0.4136931783754329   0.0573360485787389   0.0000000000000000
  0.4040479201781875   0.0577350333573017   0.0000000000000000
  0.3946007843384192   0.0580984587592611   0.0000000000000000
  0.3853459130056055   0.0584273588583778   0.0000000000000000
  0.3762828394437238   0.0587225582688298   0.0000000000000000
  0.3674052759622001   0.0589850521268143   0.0000000000000000
  0.3587104110044708   0.0592156767487264   0.0000000000000000
  0.3501952433465900   0.0594152538281565   0.0000000000000000
  0.3418548081050912   0.0595846279097528   0.0000000000000000
  0.3336858663230149   0.0597246577421592   0.0000000000000000
  0.3256868701986138   0.0598362486465025   0.0000000000000000
  0.3178507769372301   0.0599203474438374   0.0000000000000000
  0.3101776523444911   0.0599777679649948   0.0000000000000000
  0.3026620994593082   0.0600092896252224   0.0000000000000000
  0.2953022098091474   0.0600156089816429   0.0000000000000000
  0.2880942515540157   0.0599974067416477   0.0000000000000000
  0.2810344582773878   0.0599553507162620   0.0000000000000000
  0.2741224198462300   0.0598902308958287   0.0000000000000000
  0.2673508102792782   0.0598027829062179   0.0000000000000000
  0.2607208372897423   0.0596938009430880   0.0000000000000000
  0.2542268737219818   0.0595639532054747   0.0000000000000000
  0.2478699323930078   0.0594139942796022   0.0000000000000000
  0.2416426526986943   0.0592444560641495   0.0000000000000000
  0.2355443386744786   0.0590559928562533   0.0000000000000000
  0.2295742285057687   0.0588492600763349   0.0000000000000000
  0.2237267309732288   0.0586247739586633   0.0000000000000000
  0.2180011540540604   0.0583832555000465   0.0000000000000000
  0.2123936096745636   0.0581252700988444   0.0000000000000000
  0.2069018249031851   0.0578514118247249   0.0000000000000000
  0.2015265925874962   0.0575624139311738   0.0000000000000000
  0.1962639217171782   0.0572587327640815   0.0000000000000000
  0.1911098627978642   0.0569407701058159   0.0000000000000000
  0.1860635373512509   0.0566090833477142   0.0000000000000000
  0.1811225555455632   0.0562641183158228   0.0000000000000000
  0.1762831066659017   0.0559062017034564   0.0000000000000000
  0.1715472965099615   0.0555361405439852   0.0000000000000000
  0.1669099315072494   0.0551541804881659   0.0000000000000000
  0.1623702175183220   0.0547608759938091   0.0000000000000000
  0.1579259317985442   0.0543566416724963   0.0000000000000000
  0.1535748664842349   0.0539418626674859   0.0000000000000000
  0.1493147619729656   0.0535168899310313   0.0000000000000000
  0.1451447283274916   0.0530821904592715   0.0000000000000000
  0.1410625235604109   0.0526380756497570   0.0000000000000000
  0.1370659530359299   0.0521848322503466   0.0000000000000000
  0.1331567814638518   0.0517231967360234   0.0000000000000000
  0.1293276562313525   0.0512528455259629   0.0000000000000000
  0.1255804504092525   0.0507745502773552   0.0000000000000000
  0.1219131281255899   0.0502885988465475   0.0000000000000000
  0.1183237015509818   0.0497952534010120   0.0000000000000000
  0.1148102318092792   0.0492947513229479   0.0000000000000000
  0.1113720175725520   0.0487874812015910   0.0000000000000000
  0.1080070759532941   0.0482736140267307   0.0000000000000000
  0.1047146335147149   0.0477534816268928   0.0000000000000000
  0.1014927513745349   0.0472272179600503   0.0000000000000000
  0.0983395479756496   0.0466949369878610   0.0000000000000000
  0.0952554508934213   0.0461571322873805   0.0000000000000000
  0.0922363866432952   0.0456135046927440   0.0000000000000000
  0.0892828700951544   0.0450645654218522   0.0000000000000000
  0.0863942718297865   0.0445106297655928   0.0000000000000000
  0.0835678320075330   0.0439515803137779   0.0000000000000000
  0.0808019575920066   0.0433874837688950   0.0000000000000000
  0.0780971710598979   0.0428188278852694   0.0000000000000000
[...]
POINT_DATA 6176
SCALARS continuity float
LOOKUP_TABLE default
-0.0020387416537830847
-0.0007267407642050958
0.00019168694423699235
0.0004571083446961629
0.00035723775319819153
0.00034737022750902405
0.000349907527429567
0.0004399485123786279
0.0005281222165832201
0.0006088756665629817
0.0007073437789328612
0.0007583624930535803
0.000821408689214673
0.0008969660903724333
0.0009722153151417003
0.001054508915843617
0.001173055084472985
0.0012670281279253232
0.0013566871285538994
0.0013943533014032909
0.0014416153745784237
0.0014950437816270326
0.0015495844034487433
0.0016041822500332727
0.0016688814185623808
0.0017352780795130277
0.0017930190989356627
0.001843316915409924
0.001889666115356469
0.0019324858197249193
0.00197402588755371
0.0020134172816988656
0.0020524233133399662
0.002095726539000967
0.002146486495756648
0.002196973358278436
0.0022429424905960733
0.002280440775480805
0.002316274771703345
0.0023514013347668682
0.0023859265900091813
0.002421966253041178
0.002466921878703035
0.0025182120584529956
0.002565212095523958
0.002602840871123611
0.002635421768264804
0.0026654208969059457
0.0026965293600910434
0.00273363705816791
0.002781587465249204
0.0028396500545809244
0.0028996756656724594
0.0029543222650219424
0.002999736633703285
0.0030341346599432532
0.0030625805294782925
0.0030938660092449215
0.003132804309335102
0.0031837535590774554
0.0032444338900088536
0.0033016320499639853
0.0033408709167102066
0.003357799104556254
0.0033622099378057524
0.0033653272813128493
0.0033695771068498904
0.003371704025901632
0.0033741234516584074
0.003388430640543226
0.0034222821471115257
0.00346117494033465
0.0034749795701880283
0.003442409311549899
0.003373925435959241
0.0033002209105321223
0.0032396928140637263
0.0031952066867675195
0.003164886481914535
0.0031294878999001624
0.003056113076719422
0.0029274280952882154
0.002752868638231109
0.0025449605131578857
0.0023157639723854952
0.002133034029460788
0.002101921313852056
0.0020487377434237446
0.00196320679559042
0.001856860396881727
0.0017322194958017889
0.0015844126665252646
0.001417857650563563
0.0012458052799513976
0.0010816571040903017
0.0009339637638568344
0.0008115036801623704
0.0007236482553023587
0.0006670109336228804
0.0006154858358229373
0.000543363050708888
0.0004484276123889498
0.0003493517540967771
0.00026673838114131803
0.0002080351093793476
0.0001802065731902169
0.00019918268168777066
0.0002675398852235425
0.00034407891449878995
0.00037337893265207216
0.0003451863317119892
0.0002967037812015623
0.00026528082324116215
0.00025677553054654896
0.00026720152994606496
0.00031897267537853987
0.0004447047254925787
0.000606953709587768
0.000694063445597402
0.0006570714281450958
0.000566838378384391
0.0005183242563477584
0.0005273100710532382
0.0005554167097408972
0.0006049837457688919
0.0007446871426561383
0.0010010816578590338
0.0012053515947105114
0.001188282621099407
0.0010157496526660924
0.0008431594890430567
0.0007934187158989988
0.0008005396259961749
0.0008775636621823734
0.001162479180020263
0.0015717625111293545
0.0014724250900443132
0.001115512317146566
0.001025955375200281
0.0010408778219994507
0.0010463236269609363
0.00101944014968211
0.0009882762132534663
0.0011689376363283237
0.001810681275630115
0.00224003103460573
0.001870501786932399
0.0013272727718673474
0.0011827622972613704
0.001162922110144648
0.001118118970509112
0.0012304079671775763
0.0014656836068941109
0.002453850447649801
0.002118297467964783
0.0021123848119535054
0.001982219219735505
0.001654872970462541
0.0016355610567112867
0.0017795388226441444
0.0016051569326574592
0.001405954245375775
0.002442289260052328
0.0021536627688452767
0.001974165857521226
0.0020474569179386596
0.002141295029878681
0.0020816403739837004
0.002073427357922624
0.0019338619872691692
0.0012025857096221474
0.0019248176008520492
0.002204611718640769
0.00258741256514075
0.0025994875790663987
0.0028145807953474104
0.002610645213003224
0.00384129091768936
0.0027977731923276147
0.003744056270695379
0.002862523358811314
0.0035857638552506304
0.002631908515338495
0.0035912372548080186
0.002810026196800468
0.0037580687432080965
0.0031668445328674796
0.004038607987711842
0.003522107319778171
0.004298621313038839
0.0036773505742203633
0.0037725699295287373
0.004045635479500338
0.0038858570013177132
0.0036999196745841944
0.0035829672126723405
0.0036259189292742245
0.0034934543102047963
0.0033985442260802104
0.003232420402939713
0.0031141124359209114
0.0028371180925514006
0.002593546426989895
0.0026179723811173687
0.002484657609651773
0.0029893792158333836
0.0021538002443696226
0.0019632929956776325
0.0018619156897975678
0.0013405933558921143
0.0008908478738542942
0.001332986446100814
0.0006117919998074893
-0.0003313149701301682
-0.0009792269893100975
-0.0011517608006098939
-0.00020261919997627352
-0.0002803264195604143
-0.000655673786028519
-0.0021726706812185363
-0.001759707205799126
-0.0008277861661968
-0.0006368652696727453
-0.00119925949340349
-0.0013210918489921226
-0.00167690925147606
-0.0014930610069757684
-0.0008508095704686307
-0.0006689091166525904
-1.8385368370823138e-05
-0.0006056969120782804
-4.4319395656787004e-05
-0.0004477679257168826
0.0009506744190108072
-0.0008391980859893741
0.0005991396752708411
-0.0009207952113125193
0.000497782039292563
-0.0008628276207364814
0.0005477264916919887
-0.0006823378997237547
0.0005581806618112367
-0.0008760925048577592
0.0004899815129166942
-0.0008969649671324067
0.0005007785543934322
-0.0007368514176789641
0.0007388910116902756
-0.00025791285299187934
-0.00012134821683935443
6.345487875515478e-05
0.00033102370377826473
-6.140789808691223e-05
0.00010344065184031904
0.00010098896514240685
7.056684291666416e-05
1.6213430182959813e-05
-0.00017589726442020006
-0.0003042799180175851
-0.00040882707855039775
0.0001934072585570765
-0.0005903616226851413
-0.000459892670996233
-0.0004633072019500445
-0.0005378227189440213
-0.00031721738343335837
-0.00020501985549427928
-0.00018743090201254808
-0.0002480000726766468
-0.00038484241483683994
-0.00012995617673733907
-0.0007149765209706684
-0.0007705595697766587
-0.00078590117946611
-0.0007319475693798253
-0.0005097712149911883
-0.00038599319747392567
-0.0004871865819438399
-0.0006287116467988092
-0.000664179945390005
-0.0006985682115361235
-0.0007260029206619626
-0.0007343547992726966
-0.0007402237171113526
-0.0007255446789332631
-0.0006689311735928982
-0.0006223518275727721
-0.0006255717282520263
-0.0007203428757390145
-0.0007735996627345326
-0.0008111400219187537
-0.0008412042528631288
-0.0008342915840141549
-0.0007984971005372766
-0.0007479178376812851
-0.0006992262666134142
-0.0006925852585839916
-0.0007126554383707173
-0.0007488034808813687
-0.0007932614851754797
-0.0008184699950927785
-0.0008251264482442058
-0.0008218306611075178
-0.0008068113217700587
-0.00079010174966735
-0.0007892132717927901
-0.0008187199690691713
-0.000873815656467002
-0.0009321690748635628
-0.0009809555552146053
-0.0010266594426131697
-0.0010770189409182148
-0.0011344350433794656
-0.001190848368562512
-0.0012399952881526064
-0.0012915771044990758
-0.001363905940817945
-0.0014666988604777516
-0.0015919573280805436
-0.0017271861819328081
-0.0018687321199735102
-0.002011527396411957
-0.0021464079751913148
-0.0022727628782924013
-0.0024023816573413345
-0.002545578512895429
-0.0027017775301754437
-0.002860262787339606
-0.0030150093429776527
-0.0031681613118746837
-0.00332191753905335
-0.0034713552964440522
-0.003605456469406674
-0.003718083600284766
-0.0038146379728321205
-0.00390305321748909
-0.0039698103326243
-0.0039985340017765336
-0.004191451413941172
-0.004436840345815948
-0.004429011169667678
-0.004384126324598526
-0.004329771734590807
-0.00426339051132387
-0.00419709407740235
-0.004144034172016859
-0.004104511658608939
-0.004067784442905213
-0.004024025198710316
-0.003967521422925126
-0.003889728613108096
-0.003789073658034432
-0.003686266588268191
-0.0036058644476181737
-0.003544587240616771
-0.003483612335144878
-0.003413858432625573
-0.00333801300084328
-0.00325798325026272
-0.0031638578319217506
-0.0030396532179328885
-0.0028879150549087637
-0.002739383088140494
-0.0026218690222290786
-0.0025363036472836886
-0.0024608121159131694
-0.0023805737014730463
-0.002288333689274472
-0.0021655969330868752
-0.0020102409177937424
-0.0018677931696318623
-0.0017736744245127306
-0.0017043311459399768
-0.0016293653631482203
-0.0015490542903129063
-0.0014717069656854068
-0.0013995722823366944
-0.0013137178411220054
-0.0011909429474198485
-0.0010555117883469694
-0.000966630013963553
-0.0009288317872753957
-0.0009037710881933116
-0.0008721369550069214
-0.0008381485739948598
-0.0008090374020168324
-0.000774646630165759
-0.0007110642297052537
-0.00061441941289368
-0.0005297603772263412
-0.0004753945199183542
-0.0004662687973193487
-0.00046434415185815956
-0.0004451501537579248
-0.0004119235203267734
-0.0003473165651884063
-0.00025877434322910337
-0.00013348959119360585
-8.65296116331103e-05
-6.659043795054142e-05
-5.485267835560268e-06
7.95262046313224e-05
0.00017241281825059008
0.00026434375778210405
0.00036810717237952575
0.0005177825374833951
0.0006681989753438341
0.0007830092983304838
0.0008916439257139774
0.0009510078890323335
0.0010173864765187781
0.001095492316730934
0.0011694732640062217
0.0011931902042648576
0.0012477593182724069
0.0011987738624935555
0.0011379026274667683
0.001034710993784142
0.0009334638990908429
0.000709524362517644
0.0003007154944595239
0.00012393060219317726
0.0003204209155837002
-0.0005465125262749198
-0.0006776501317492589
-0.00021963851059111407
-0.0007228706805040788
-0.0017130468510628827
-0.0013971046135364052
-0.0006014621711657097
0.00037731886057756935
0.0006454912998527286
0.00033992261222446404
0.0018811080211790306
0.00039519619551366483
1.673284576344213e-05
0.00037476595558109
0.0017500408430343244
0.00037097702970273613
0.0006696678456231283
0.0003815160319735116
0.0015282073978068057
0.000439262219339705
0.0013372407119897358
0.0005397639624558124
0.001834276597661123
0.0006287647509232046
0.00072487521654974
0.000702518686458233
0.0015854865608252691
0.0007851300492736589
0.0011783823842674427
0.000854033585002983
0.0025815545316181326
0.0009281276759484088
0.00082354966968877
0.0010054646125810286
0.001768877670783945
0.0010898141083636498
0.0016116247625572021
0.0011826128957959621
0.0029678221168802426
0.0012801127792012562
0.0008121247062434318
0.0013518386599664005
0.0018778062276824795
0.0014188793375505126
-9.174292786089699e-05
0.001469587679467839
0.003597657936552604
0.0015233975095844618
0.0007766453507910097
0.0015768024918888417
0.00249586174515636
0.0016420438022035021
0.0014555139951639743
0.001712933714637798
0.0034810631084762986
0.0017789594971047424
0.0006949765816563679
0.0018275227629460664
0.0028144111809740215
0.0018782126195472809
0.001265529952025544
0.001921360114074463
0.0038942462950885617
0.0019636285275026364
0.0007188118124747884
0.002003480026885741
0.0024938304489036263
0.0020419537801616614
0.001019828730595278
0.0020811522586386853
0.0032950226797591126
0.0021277446198925604
0.0007775697343988348
0.0021766322581181006
0.0018745520287122887
0.002226279741715425
-0.00017911650035875435
0.0022674294597096285
0.0030722326474988586
0.0023054671674696066
0.0008263543601887548
0.0023368020287984105
0.0017150950324166117
0.002370167494223717
0.0008529403181009534
0.002403179449585064
0.0028998998226699023
0.0024411350124046716
0.0008686146288589962
0.0024892538338927997
0.001474958390905856
0.0025391258777891167
0.0013813831510690155
0.002582161565379344
0.0030367512661950173
0.002615164905570008
0.0010110446075393595
0.0026430960312403785
0.001536347229818592
0.0026706417718049724
0.0009757699744516542
0.0027023441665328355
0.0031018191444468694
0.0027420184334815524
0.0011682877611056718
0.0027940594529897375
0.0021533056463525282
0.0028537576960578925
0.00036274197088420244
0.002911700266462959
0.003618179433346335
0.0029623700703481485
0.001268152684217862
0.0030016956469915883
0.001988024342262451
0.0030322234352049425
0.0013780492761959235
0.0030606927088072744
0.003710311740099518
0.003093648275002877
0.0011289105810233576
0.0031363433290692144
0.0018788990956246647
0.003191888973718242
0.0011950296546382095
0.0032524464414877587
0.0032252268616550744
0.0033039729644353004
0.0009775003899104965
0.0033344601151092477
0.0018779026592576557
0.0033456045407468495
0.000937074872492725
0.003348843118318884
0.002620231313580812
0.003351814952339967
0.0008490131805738767
0.003353826024433384
0.0015014554577635164
0.0033533500977617286
0.0024119414887532253
0.003357272891612347
0.002368746061724406
0.0033786725310776295
0.0009294541251166922
0.0034175085594898152
0.0006629159827733672
0.003452690966022133
0.0010831269200468996
0.0034532475858566067
0.0016690645091713395
0.003407259624055163
0.000974515797121554
0.0033348723826392116
0.0007033058651518512
0.00326408851424105
0.001011498271380668
0.0032066635861351007
0.0023256993184412184
0.0031671117777083914
0.0010399695803358744
0.0031397679607152035
0.0012078998070977904
0.003098176231820007
0.0005973258156449856
0.003010036414824142
0.0022515505253860256
0.002868479520346664
0.0012404907670130851
0.002688765745269027
0.0012259996037628932
0.002479016726676279
0.0007199530096193066
0.0022445532203182214
0.0010976895797858855
0.002144615914410537
0.001370127505340573
0.002060608984662603
0.0010630248130481525
0.0020220317810582342
0.0006732882457153507
0.0019354331703829836
0.0011678725217351559
0.001824201100915717
0.0014997130302348122
0.0016964732194733384
0.0013836594882944793
0.0015465679793947927
0.0008074061019986076
0.0013753265611084493
0.0011080889465771384
0.0011963486721466125
0.0014841839810134413
0.0010254950898307576
0.001254087193719324
0.000872025457147129
0.0007294676896519915
0.0007421153582954966
0.0016400408900078328
0.0006425873130629905
0.0012517407894884881
0.0005743693788927908
0.002291953866659927
0.0005185225261874933
-0.00020682175345030756
0.00044610764991696226
0.0019027856488784075
0.00034688799882175907
0.0009868222339814228
0.00023816059614457352
0.0016924887490556099
0.0001456318805876197
-0.00024532618991100503
8.177185079043042e-05
0.0014826576082535574
4.9196867176254525e-05
0.0008420468318118281
5.47210883180561e-05
0.001371219468872714
0.0001031389140335309
0.00017530564585015255
0.000171535787715441
0.0011209211745550006
0.00020759157676088636
0.0009100755532800781
0.00018074279177514657
0.0008864109055498602
0.00012196639534793134
0.0005506606157332743
7.489352697540064e-05
0.000909776396755133
6.371557994142542e-05
0.0012133551450508497
7.66538961255382e-05
0.0010416131789980684
0.00012173107855957913
0.004128508643271081
0.00021634971553440377
0.0015601394703405882
0.0003532678384311812
0.0013700346878716175
0.00045442909907137514
0.0020110001224675485
0.0004342115939634133
-0.00015617863505591655
0.00034110021377503
0.0018656554662722501
0.0002604450657109512
0.0014660243471397328
0.0002575465556450897
0.0015513127603987817
0.0002911155842651431
0.0008523816037724729
0.00035122022179610304
0.0013299568943599537
0.0004650132001240769
0.001432017256137401
0.0006637475753266167
0.001036151945048144
0.0008671339622238226
-0.0001955688765727195
0.000863809067276993
0.0009866487021915997
0.0007222145712665414
0.0009806006684865707
0.0005362917779577125
0.000991741735609183
0.0004540741167989734
0.0003890061615848472
0.0004681484887327092
0.0009683009935116301
0.000545555113559005
0.0008146176855752215
0.0007706476480929983
0.0009347366882534436
0.001076274322601989
0.0005126694469467797
0.0011425161770813727
0.001360637000036522
0.000856552629146692
0.000845984108651773
0.0006321306877031433
0.0015434383816706515
0.0006329476170014316
0.0008413061191118807
0.0006376857364457523
0.0013305296321021308
0.0006252719550239823
0.0008039259885247144
0.0006323411399442644
0.0011735023950593172
0.0008560624807032726
7.682090933990731e-05
0.0011507248949439231
0.0009460087758990633
0.0015825557437757344
0.0008440081244585678
0.001519199653067546
0.000870062459844687
0.0009997290078491527
-9.242325100430997e-05
0.0006919319019801311
0.0008317891894849569
0.0006594792523353584
0.0012131261092690453
0.0006317121700175229
0.0010066090336395715
0.0007798159297391627
-0.0003212580453751652
0.0010205669326165468
0.0011803023286327942
0.0013424558660484341
0.001175705519975778
0.0016572511667273325
0.0013590343350867971
0.0017378409907654192
0.000805837955452185
0.0018066097552943362
0.0012776491712622618
0.0012649819969160685
0.001099129451341535
0.001014035098335825
0.0010717298195941163
0.0010772260210229175
0.0011228776262424765
0.0010128467242600454
0.0008742445847297109
0.0009944584324371973
0.0013123002658507717
0.0012536836058918005
0.0007861589235665012
0.0013671385156315632
0.0006773463596142125
0.0013915065929850305
0.0007188012929862106
0.0017699671758557927
0.0018496470839866603
0.0014311088117740793
0.0006578886636850001
0.0017825864426759621
0.00046220334529131253
0.0014081960460385725
0.0006382713631129171
0.0013423682582650418
0.000923082715290319
0.0009611661941555661
0.0007324962642720869
0.001111245784754434
0.000984749063763277
0.0015494752539712722
0.0007994357204548621
0.001714058332514419
0.0007697900745462034
0.0019000106338267191
0.0008144925625428521
0.0019451693808744711
0.0022959976464246652
0.0021266170107306307
0.000693594892370354
0.0026228180477274082
0.00047387279146413383
0.0023953819665982075
0.000582214569670436
0.0025252725906576103
9.281989721998579e-05
0.0022561612242617607
0.0005050940087697891
0.002223582211414418
0.0010150231666905013
0.0020176095427406502
0.0004462375242297997
0.00232738029155277
0.0008210335186767472
0.0021714216481994704
0.0004073217629239055
0.0025552020291071697
0.0010090728706470592
0.0025044098435559304
0.00039634401987920345
0.002906520097823604
0.0010815137134734015
0.0028439759928673724
0.0004358296460414901
0.0031575963189675316
0.0008095337127962325
0.003052383035138033
0.0004751858105885383
0.0034151546549550248
0.0006912251426710546
0.0032873057695505894
0.0004808659444584374
0.0036843507179067916
0.0009686641840137446
0.003046876202066526
0.00042878422249992287
0.0034947755695802474
0.0007158997663447961
0.003037047620660586
0.0003716834990029857
0.0035550553431038428
0.0014796883978958788
0.003024248437583983
0.00033848059813981854
0.0034746150148664895
3.8310607266715935e-07
0.002870462624541999
0.00032619168568978195
0.003094741713292537
0.0023395188823863216
0.0028125153466244278
0.0003394753834331152
0.002946365274690475
0.0011609901607972798
0.003255621670982424
0.0003842327970861668
0.0029519918719879247
0.0011243268420064612
0.002480290561781902
0.0004661656426251944
0.002415015839129234
-0.0004979091335891754
0.0023872753831270885
0.0005595189401297111
0.0019361950628039454
0.0014386712790892264
0.001635996037758819
0.0006425094594399734
0.0028858869668515292
0.004348323791330426
0.002246912592066172
0.0007028976866191372
0.001559177620520535
0.0004383149054074746
0.001311015711837632
0.0007624134306447518
0.001109060456024503
0.00016536857094696705
0.0010874104266702096
0.0008403143755958619
0.0005601346108498318
0.001110860803153927
0.0003117873824375615
0.0009398810830538915
-0.0002114921397971467
0.0012392854067308885
-0.0008335599454587755
0.0010606057022508248
-0.0006293970459894119
0.0008762793762958434
-0.0016298717608121537
0.0012032745935384144
-0.0015459366796731963
0.0003557782353849285
-0.0027715004345865643
0.0013662746771129128
-0.002587569441587006
0.0006757864641559236
-0.0026160502743322682
0.0015375549110212602
-0.0025741123326408297
0.00043729688792331267
-0.0018731403686578225
0.0016997091078168785
-0.0017407862594846126
0.0006242217053957314
-0.0016606574770903168
0.0018440078926972405
-0.001817875085848099
-0.0005392542167527849
-0.0012744539376864806
0.0019762929995193984
-0.0016376535990593724
0.0021175413451849485
-0.001649741659336774
0.0021023520627012544
-0.0018541293137418085
0.0008237649580046504
-0.0017826399188018492
0.0022008172610435994
-0.0018882478826013438
0.0012937657108305913
-0.0017678438153880059