# vtk DataFile Version 1.0
GRUMMP topologically 2D mesh
ASCII

DATASET UNSTRUCTURED_GRID
POINTS 6176 float
  1.0000000000000000   0.0000000000000000   0.0000000000000000
  0.9979736161243241   0.0002872981906159   0.0000000000000000
  0.9959038003591104   0.0005818082753016   0.0000000000000000
  0.9937894604158818   0.0008826109490225   0.0000000000000000
  0.9916311447855282   0.0011889740049165   0.0000000000000000
  0.9894256878168368   0.0015011074645448   0.0000000000000000
  0.9871732566523234   0.0018189104108560   0.0000000000000000
  0.9848739492731372   0.0021423104928037   0.0000000000000000
  0.9825241245750710   0.0024717658271048   0.0000000000000000
  0.9801244133260449   0.0028071825305054   0.0000000000000000
  0.9776732769852096   0.0031487906039340   0.0000000000000000
  0.9751690039483889   0.0034968357351786   0.0000000000000000
  0.9726117072730877   0.0038512643819321   0.0000000000000000
  0.9700001180350898   0.0042121148976419   0.0000000000000000
  0.9673332227148538   0.0045793859121594   0.0000000000000000
  0.9646079236541195   0.0049533708962095   0.0000000000000000
  0.9618249648196705   0.0053338679490647   0.0000000000000000
  0.9589807878895711   0.0057213439443832   0.0000000000000000
  0.9560767311296049   0.0061156062701256   0.0000000000000000
  0.9531120216710255   0.0065167463399167   0.0000000000000000
  0.9500819018783057   0.0069253778138591   0.0000000000000000
  0.9469876484068450   0.0073412143029309   0.0000000000000000
  0.9438286210030068   0.0077641908681895   0.0000000000000000
  0.9406001269296587   0.0081947829660712   0.0000000000000000
  0.9373041277084813   0.0086325757434285   0.0000000000000000
  0.9339368121646437   0.0090779560824189   0.0000000000000000
  0.9304976431076690   0.0095309377793780   0.0000000000000000
  0.9269838874379289   0.0099918267186165   0.0000000000000000
  0.9233965242394278   0.0104604374002928   0.0000000000000000
  0.9197323684717913   0.0109371203977286   0.0000000000000000
  0.9159901296799260   0.0114219111797446   0.0000000000000000
  0.9121662515702946   0.0119150917142392   0.0000000000000000
  0.9082612640703632   0.0124164093968364   0.0000000000000000
  0.9042711890176098   0.0129261849544228   0.0000000000000000
  0.9001985925103467   0.0134439182275261   0.0000000000000000
  0.8960367883853674   0.0139703538547480   0.0000000000000000
  0.8917881131106570   0.0145051006126241   0.0000000000000000
  0.8874465968544013   0.0150488093430172   0.0000000000000000
  0.8830132689405343   0.0156012428338051   0.0000000000000000
  0.8784843643309772   0.0161627200549514   0.0000000000000000
  0.8738585592690924   0.0167332093564690   0.0000000000000000
  0.8691331845657406   0.0173128340473851   0.0000000000000000
  0.8643080629784704   0.0179014022230632   0.0000000000000000
  0.8593790220315882   0.0184992057974382   0.0000000000000000
  0.8543443022105112   0.0191062525475961   0.0000000000000000
  0.8492020742372332   0.0197225542022908   0.0000000000000000
  0.8439504592998461   0.0203481184762133   0.0000000000000000
  0.8385847225217766   0.0209832807547837   0.0000000000000000
  0.8331043690503205   0.0216278714070098   0.0000000000000000
  0.8275075883744546   0.0222818740978654   0.0000000000000000
  0.8217896079901662   0.0229456038551552   0.0000000000000000
  0.8159499389768221   0.0236188617887649   0.0000000000000000
  0.8099850870934132   0.0243017702717010   0.0000000000000000
  0.8038929332928342   0.0249942623102002   0.0000000000000000
  0.7976697970229181   0.0256964297179088   0.0000000000000000
  0.7913134730328051   0.0264081777898121   0.0000000000000000
  0.7848218596203610   0.0271293903098903   0.0000000000000000
  0.7781898173908960   0.0278602762976724   0.0000000000000000
  0.7714169256365310   0.0286005013921829   0.0000000000000000
  0.7644979701754163   0.0293502351726533   0.0000000000000000
  0.7574308659438134   0.0301093068082177   0.0000000000000000
  0.7502135053150701   0.0308775557618342   0.0000000000000000
  0.7428404612557281   0.0316551512399728   0.0000000000000000
  0.7353096164115749   0.0324418730798164   0.0000000000000000
  0.7276172963491144   0.0332375368705936   0.0000000000000000
  0.7197598859172740   0.0340418579688506   0.0000000000000000
  0.7117355290536627   0.0348543282856948   0.0000000000000000
  0.7035389878799579   0.0356747811793425   0.0000000000000000
  0.6951650952820780   0.0365031090698871   0.0000000000000000
  0.6866122709923126   0.0373388258653197   0.0000000000000000
  0.6778754950330185   0.0381817369178559   0.0000000000000000
  0.6689534383202176   0.0390312029136988   0.0000000000000000
  0.6598376964403885   0.0398871771799410   0.0000000000000000
  0.6505290121117546   0.0407486821288951   0.0000000000000000
  0.6410191910005383   0.0416153892989160   0.0000000000000000
  0.6313056496470314   0.0424862165552765   0.0000000000000000
  0.6213823079172336   0.0433602824420315   0.0000000000000000
  0.6112489281649386   0.0442362457646169   0.0000000000000000
  0.6008963123926909   0.0451137308907019   0.0000000000000000
  0.5903211292528141   0.0459917803130241   0.0000000000000000
  0.5795184839365645   0.0468692540951747   0.0000000000000000
  0.5684857150099230   0.0477443424041717   0.0000000000000000
  0.5572148862675538   0.0486154402631608   0.0000000000000000
  0.5457024491672809   0.0494805599680832   0.0000000000000000
  0.5339780836677636   0.0503353194116202   0.0000000000000000
  0.5219860728183490   0.0511813660693644   0.0000000000000000
  0.5101253307512127   0.0519891081313360   0.0000000000000000
  0.4985043971600128   0.0527514649709832   0.0000000000000000
  0.4871181100865982   0.0534694955937708   0.0000000000000000
  0.4759663238182478   0.0541439373921026   0.0000000000000000
  0.4650424897306392   0.0547759224024376   0.0000000000000000
  0.4543414694194311   0.0553665338532900   0.0000000000000000
  0.4438615277983380   0.0559167464857066   0.0000000000000000
  0.4335966445555638   0.0564277439227250   0.0000000000000000
  0.4235422171719039   0.0569005367499369   0.0000000000000000
  0.4136931783754329   0.0573360485787389   0.0000000000000000
  0.4040479201781875   0.0577350333573017   0.0000000000000000
  0.3946007843384192   0.0580984587592611   0.0000000000000000
  0.3853459130056055   0.0584273588583778   0.0000000000000000
  0.3762828394437238   0.0587225582688298   0.0000000000000000
  0.3674052759622001   0.0589850521268143   0.0000000000000000
  0.3587104110044708   0.0592156767487264   0.0000000000000000
  0.3501952433465900   0.0594152538281565   0.0000000000000000
  0.3418548081050912   0.0595846279097528   0.0000000000000000
  0.3336858663230149   0.0597246577421592   0.0000000000000000
  0.3256868701986138   0.0598362486465025   0.0000000000000000
  0.3178507769372301   0.0599203474438374   0.0000000000000000
  0.3101776523444911   0.0599777679649948   0.0000000000000000
  0.3026620994593082   0.0600092896252224   0.0000000000000000
  0.2953022098091474   0.0600156089816429   0.0000000000000000
  0.2880942515540157   0.0599974067416477   0.0000000000000000
  0.2810344582773878   0.0599553507162620   0.0000000000000000
  0.2741224198462300   0.0598902308958287   0.0000000000000000
  0.2673508102792782   0.0598027829062179   0.0000000000000000
  0.2607208372897423   0.0596938009430880   0.0000000000000000
  0.2542268737219818   0.0595639532054747   0.0000000000000000
  0.2478699323930078   0.0594139942796022   0.0000000000000000
  0.2416426526986943   0.0592444560641495   0.0000000000000000
  0.2355443386744786   0.0590559928562533   0.0000000000000000
  0.2295742285057687   0.0588492600763349   0.0000000000000000
  0.2237267309732288   0.0586247739586633   0.0000000000000000
  0.2180011540540604   0.0583832555000465   0.0000000000000000
  0.2123936096745636   0.0581252700988444   0.0000000000000000
  0.2069018249031851   0.0578514118247249   0.0000000000000000
  0.2015265925874962   0.0575624139311738   0.0000000000000000
  0.1962639217171782   0.0572587327640815   0.0000000000000000
  0.1911098627978642   0.0569407701058159   0.0000000000000000
  0.1860635373512509   0.0566090833477142   0.0000000000000000
  0.1811225555455632   0.0562641183158228   0.0000000000000000
  0.1762831066659017   0.0559062017034564   0.0000000000000000
  0.1715472965099615   0.0555361405439852   0.0000000000000000
  0.1669099315072494   0.0551541804881659   0.0000000000000000
  0.1623702175183220   0.0547608759938091   0.0000000000000000
  0.1579259317985442   0.0543566416724963   0.0000000000000000
  0.1535748664842349   0.0539418626674859   0.0000000000000000
  0.1493147619729656   0.0535168899310313   0.0000000000000000
  0.1451447283274916   0.0530821904592715   0.0000000000000000
  0.1410625235604109   0.0526380756497570   0.0000000000000000
  0.1370659530359299   0.0521848322503466   0.0000000000000000
  0.1331567814638518   0.0517231967360234   0.0000000000000000
  0.1293276562313525   0.0512528455259629   0.0000000000000000
  0.1255804504092525   0.0507745502773552   0.0000000000000000
  0.1219131281255899   0.0502885988465475   0.0000000000000000
  0.1183237015509818   0.0497952534010120   0.0000000000000000
  0.1148102318092792   0.0492947513229479   0.0000000000000000
  0.1113720175725520   0.0487874812015910   0.0000000000000000
  0.1080070759532941   0.0482736140267307   0.0000000000000000
  0.1047146335147149   0.0477534816268928   0.0000000000000000
  0.1014927513745349   0.0472272179600503   0.0000000000000000
  0.0983395479756496   0.0466949369878610   0.0000000000000000
  0.0952554508934213   0.0461571322873805   0.0000000000000000
  0.0922363866432952   0.0456135046927440   0.0000000000000000
  0.0892828700951544   0.0450645654218522   0.0000000000000000
  0.0863942718297865   0.0445106297655928   0.0000000000000000
  0.0835678320075330   0.0439515803137779   0.0000000000000000
  0.0808019575920066   0.0433874837688950   0.0000000000000000
  0.0780971710598979   0.0428188278852694   0.0000000000000000
[...]
POINT_DATA 6176
SCALARS continuity float
LOOKUP_TABLE default
-0.0009227793474370701
-0.0006847645916095398
-0.0003830499599333683
-0.00020513246939555686
-4.644033989233173e-05
6.99832319285512e-05
9.334803548547207e-05
0.00022553623163526907
0.0003488524059006294
0.0004264151868370542
0.0005031246832670666
0.000563583894501698
0.0005552045184091822
0.0005560236536411285
0.0005207752666345291
0.00048364538009064764
0.0005153050696702607
0.0005422433084840181
0.000581126682557274
0.0005869171028521533
0.0005435534319638707
0.0005032360292748051
0.00045934541034831696
0.0003971136501879303
0.00036553556542793196
0.00037723487582031216
0.00040433112787946197
0.0004283320109947015
0.0004344765391616202
0.0004284564537223592
0.00042797172249106695
0.00043508956138553457
0.0004433187472053819
0.0004369259652902523
0.0004265474851372419
0.000449241404958618
0.0004950964332290233
0.0005633513456886705
0.0005942989967866324
0.000589699425307562
0.0005824872309399204
0.0005709296948061505
0.0005508160650228805
0.0005502978058134699
0.0005743128886930888
0.0006075186741269525
0.0006132284556093251
0.0005780723637752791
0.0005293926460291626
0.00048477473981689155
0.0004395907615353092
0.00039945316715883357
0.0003720315259073361
0.0003498470645185692
0.0003087392909749905
0.00023271213707836644
0.00013796815237305756
5.081727532687895e-05
-2.6391096967270573e-05
-9.699530929324019e-05
-0.00016080291083556968
-0.00022531070079789812
-0.00030633133207285003
-0.00040822084602224964
-0.0005180264210743397
-0.000623952969514077
-0.0007277277657330121
-0.0008342227500378163
-0.0009398466683766714
-0.0010372574839898133
-0.0011282988910054287
-0.0012219637884550599
-0.0013263440968190683
-0.0014345158462006314
-0.0015268680977112714
-0.0015917169443891896
-0.0016352003895535462
-0.0016701895048565653
-0.001707340992711773
-0.0017506255854345826
-0.0017916509383444485
-0.0018102350391779756
-0.001790588369708308
-0.0017346884416312577
-0.001675905710838245
-0.0017432607084037122
-0.0016880246729941936
-0.0015646603118149925
-0.0014740078834086915
-0.0013798454538881096
-0.001255424775269957
-0.001099515938152647
-0.0009261087912082577
-0.0007512168722474555
-0.0005801203051167736
-0.0004138363148542552
-0.0002596076606291974
-0.0001311895180033934
-3.2629143133124665e-05
5.2894496995975474e-05
0.00014062699029966083
0.00022918979937525385
0.0003004635010764419
0.000341428290574321
0.000353924135463849
0.00033873019974484244
0.0002879996776304003
0.00019715106596584467
8.537222600651874e-05
-1.5976081317540637e-05
-9.475520100128615e-05
-0.0001633655060800867
-0.00023761247098091416
-0.0003165864388065423
-0.00039269527885990905
-0.0004713441684549665
-0.0005681859433802271
-0.0006767672576178138
-0.0007649022198391669
-0.0008111995437751763
-0.000833050071621661
-0.0008598776076090855
-0.0009001891210549647
-0.0009423872149673832
-0.0009834301572926886
-0.0010405197359904521
-0.0011223261623801866
-0.0011933841411104708
-0.0012204469973124375
-0.0012169533011456297
-0.0012090716964144434
-0.001220216071150718
-0.0012398369141199202
-0.0012686426353765586
-0.0013322626013113875
-0.0014085717703194182
-0.0013914323555704081
-0.0013455472642918903
-0.0013446870230136732
-0.001350757023976664
-0.0013531964570669404
-0.0013499671499447906
-0.0013440052863790467
-0.0013734855661976567
-0.0014594301395635854
-0.0014481672215084773
-0.0013621290765315538
-0.0013061783641061574
-0.001282368578913375
-0.0012546930758851218
-0.0012193321882627668
-0.0011998882796023496
-0.0011886540571779164
-0.0011377966558288228
-0.0011796050622237815
-0.001128012196135075
-0.0010747975101504602
-0.0009481845241441087
-0.0009350127401588731
-0.0008998804999192932
-0.000836617498268564
-0.0007918031313456345
-0.0007062808340092434
-0.0007388713504916133
-0.00065606352322356
-0.0006562405825631908
-0.0006403520617642663
-0.0006402236282504738
-0.0005916710078443416
-0.0005507348161250306
-0.00043096707713200915
-0.0004043299826890346
-0.0003302192915599249
-0.00035694117892262557
-0.00030925692979671943
-0.0003504810538648307
-0.00031227914583495836
-0.0002712597561960947
-0.0003216360672429485
-0.00026653711788040955
-0.00035737381997560046
-0.0002565732804428602
-0.00041524278518632906
-0.0002663812134663698
-0.0004100535564198159
-0.000244790995861592
-0.0004312644933597517
-0.0002740920741746883
-0.0005119665285374643
-0.0002896508099907126
-0.0006783030194788619
-0.0007647598800492667
-0.0009686030309273596
-0.0011689758615365381
-0.0013804721530283012
-0.001581505012380686
-0.0018261716821396528
-0.002121827269334743
-0.0024467817564007275
-0.0028118481925746897
-0.003235204794612338
-0.0037912653502290843
-0.0045004865426815106
-0.005216282778225252
-0.0053021119292340525
-0.006488031973484266
-0.007080349092380833
-0.007702736404782818
-0.008237451419063591
-0.008740522756918848
-0.009484678369969753
-0.009562106312962644
-0.009726535682890539
-0.009724007348396914
-0.009647008371233685
-0.009474254737136154
-0.00910042753116134
-0.00830162181750297
-0.007974427643209542
-0.007387122434263301
-0.006751971017265994
-0.006075048308181413
-0.005490071066628932
-0.005006788454516905
-0.00456910991962295
-0.004161967138659302
-0.0037958446426245686
-0.0034939636530855744
-0.0031808633538721043
-0.003065518545551144
-0.0027957975646567506
-0.0027080376724666487
-0.002486387695282645
-0.002253173808813001
-0.00222263594491631
-0.0020336407112447287
-0.0020613158029946636
-0.001921578298462709
-0.0019746043980827838
-0.0018372614566695277
-0.0018874305337937534
-0.001764312886322893
-0.0018188616797760264
-0.0016419900633611562
-0.0017551824831829631
-0.0016145888870451996
-0.001728191779527621
-0.0015754797046519044
-0.0016495355880795997
-0.0016187540601452649
-0.0015237259911543258
-0.001532308367068688
-0.0015099817417243125
-0.0015007207091340734
-0.001448806331490623
-0.001415696983872946
-0.0013436254650181524
-0.0013133288629350475
-0.0012707173690867158
-0.0012779521754734025
-0.0011458579521482918
-0.0012382392500456753
-0.0012216496089040413
-0.0012297290665809443
-0.0012346228116695162
-0.0012145156698503126
-0.001265486859231887
-0.0012409398258698698
-0.0012044485636039752
-0.0011941887058575318
-0.0010871874469225728
-0.0011133439542393073
-0.001073804779190887
-0.001059177755327508
-0.0010365662100747365
-0.0010361485061071022
-0.0010721842421762059
-0.00107801749374064
-0.0010442232397728578
-0.0009763439440402589
-0.0009269611272153277
-0.0008919464347864139
-0.0008593255768526135
-0.0008290689967469486
-0.0007940968084523292
-0.0007584983936652601
-0.0007451708865911515
-0.000730450873830463
-0.0007027728850435777
-0.0006291273048142027
-0.00055811493008577
-0.0005107239483455109
-0.00046769035106944146
-0.0004280991785769686
-0.0003985118912540209
-0.00036872064469929526
-0.0003280964197747212
-0.0002670573187217811
-0.00020144925077921876
-0.00015202581880951173
-0.00011440072827009377
-8.214490650682984e-05
-5.4980736994467806e-05
-2.556715559340254e-05
1.769523508225461e-05
8.004907317050433e-05
0.00015296449862729888
0.00022044105856941802
0.0002799302865049746
0.0003415671641171441
0.0004101452281388269
0.0004819765376166987
0.0005532531609904985
0.0006266742066736115
0.0007071469008131412
0.0007934881736096789
0.0008753100520501091
0.0009335936706834201
0.0009560303611902699
0.000944221686657345
0.0009036394526486687
0.0008397987512793291
0.0007615342783007771
0.0006809777685473153
0.0005978967584744103
0.0005012272848863244
0.0003847575596087051
0.0002570998510624333
0.00012831737607926785
3.86791545699446e-06
-0.00011223965639608375
-0.00021758962413476695
-0.0003061589000616484
-0.00036824268242835755
-0.00039776479424166993
-0.00039561747206325054
-0.0003817100374633847
-0.00038493026256197863
-0.00029745493531930817
-8.449537802701427e-05
-3.30015364036068e-06
8.107657339571254e-05
0.0001993387090202872
0.00034746617295440996
0.0005053831462926129
0.0006578412415062197
0.0008033416039457266
0.0009478811148748824
0.0010950934170654754
0.0012521892110090027
0.0014204043431082858
0.0015817496050838254
0.0017208399597351159
0.0018442703982212408
0.001967264521916425
0.002092326553789293
0.0022115304206032547
0.0023209427611540013
0.002428029777650501
0.0025375811319745473
0.002634134838395701
0.002705959674243309
0.002762713700059485
0.002819387178563163
0.0028834864812177347
0.0029554721418034178
0.003037922861855433
0.003128380400989982
0.0031974978145606447
0.0032266033578231593
0.0032445067963562777
0.0032809140681853894
0.0033183733375080726
0.00333780386560765
0.0033441823211097727
0.0033520684533805017
0.003369355786284148
0.0033730537586684904
0.0033256272681520594
0.0032470546272973314
0.0031992059689720754
0.003178199528367818
0.0031493265850851665
0.003106556853865169
0.003062329891286529
0.0030292924716359302
0.002996797788897793
0.0029216832871854855
0.002806599045424688
0.002717248606734355
0.0026498858883727923
0.0026110944016293713
0.002571244618428889
0.002528382616761708
0.0024873321068934365
0.002427814734930353
0.0023470413880238125
0.0022731951159976832
0.0022676328540372458
0.0022592481532147904
0.0022535953671554984
0.0022524671479879706
0.00226284672203769
0.0022837196688088733
0.0023014456729156673
0.002283907530756435
0.00222129871595955
0.002175437328756917
0.002129558212494132
0.0021327990343918317
0.0021464364561435013
0.0021027851279652003
0.002049106154209469
0.0019126903549421884
0.0017546954138823584
0.001561297236630315
0.0013138258605373285
0.0010580861468922449
0.0008581406926986821
0.000536314445685553
0.0001245761961564555
-0.0001932038839898276
-0.0007588020702421056
-0.0008681148553200794
-0.001146184916290835
-7.02374367013918e-05
-0.0010600039072926964
-0.002306731752653657
-0.0015681263159851367
-0.0006127024919915315
-0.00021107481582029113
-0.0005587603118507771
-0.00019726768614255588
-0.006372019466088667
-6.105242478953414e-05
-0.0026894760501649318
5.54929799601364e-05
-0.005994851132919691
0.00013277024167611872
-0.0006880813537281528
0.00012364037325978948
-0.005731408944040054
0.00020674177188533265
-0.003325595598439482
0.00036339632678054445
-0.005408647844325412
0.0004514647181793813
-0.0008539756031004887
0.0005334926222738316
-0.005109082574306488
0.0005736285484832017
-0.0018595138816392283
0.0005814761603187543
-0.004945503122975319
0.000577549176211604
-0.0010415253951686874
0.0005252166609086135
-0.004548491704923287
0.0005036105789536255
-0.003387172221856125
0.0005330546305618241
-0.004510097388945162
0.0005632808593591425
-0.0011900456312252947
0.0005901462193357665
-0.004062611556970821
0.0005864101939040736
-0.0039632854037630815
0.0005527955988600106
-0.004190709878906824
0.0005121969218667861
-0.001315465675235652
0.00045485047533640817
-0.0037098039260843236
0.00039845390541876535
-0.0032962005887022384
0.00038805507348264683
-0.0037885037219763384
0.00039976118250432003
-0.001429698778025721
0.0004252837096821907
-0.0033114263454740536
0.00043851745874107673
-0.0019890832315744237
0.00043818537309706226
-0.003493343954075021
0.0004339438632647569
-0.0015734169143778074
0.00043425180468827654
-0.0030489779997204974
0.0004386034567988009
-0.0034644509033394267
0.00044276500896791053
-0.003241074795836843
0.0004273534365753107
-0.0017204349140392385
0.00043098812279550894
-0.0030095176782835866
0.0004530457677163652
-0.0033340165157273627
0.0005129547568785306
-0.003052534255812768
0.0005685890200607159
-0.0018581074924166154
0.0005916547652842269
-0.0028991841981456405
0.0005892258923442365
-0.0035958250864991746
0.0005839043175285295
-0.002987625407753194
0.0005691465861966846
-0.001988745891598902
0.0005558046896157708
-0.0028398552218386014
0.0005645900484076736
-0.0021218012052809164
0.0005890944858721992
-0.0030034727779272726
0.0006168477400846328
-0.0021584674702861905
0.0006086491255731617
-0.002833525700386817
0.0005718490945343168
-0.003390813868530002
0.000529635470178758
-0.0029943153496276302
0.0004851631038039729
-0.0023146910721011217
0.0004409581412024943
-0.0030241334736528422
0.0004062689703886422
-0.003987679828173735
0.00038199417611146984
-0.002687349686974153
0.0003568986390667298
-0.0024500783945789173
0.0003040118294829518
-0.0029297077202099183
0.0002213352338967078
-0.0033782491240424224
0.00013157801537485122
-0.0026175856937801804
4.7926098470545725e-05
-0.002515425406756171
-2.8233406867835083e-05
-0.0026146798377440638
-9.64673405945244e-05
-0.0021684322224193625
-0.00015890134812135485
-0.0027986819093012744
-0.0002273641898368593
-0.0025748732398396205
-0.0003158441510047124
-0.0025911597434377567
-0.00042106379543844434
-0.003470110082480148
-0.0005279629082035026
-0.0027112696262492583
-0.0006314125439943505
-0.002638493553219992
-0.0007354259568911298
-0.002559919174603079
-0.0008412152488237676
-0.002511570820679313
-0.0009442918793760272
-0.0027487713175811455
-0.0010391359718269829
-0.0027494576183851862
-0.001130256237755981
-0.002591373809692605
-0.0012278205896801555
-0.0034399498940033317
-0.0013364377760569494
-0.002857151075070174
-0.001443010511681197
-0.00285008988265077
-0.0015282650465071876
-0.0027210294500518975
-0.0015863002677131257
-0.002252935772495758
-0.001626872611591427
-0.0026309002283388923
-0.0016614974709682074
-0.002954105491949391
-0.001700735816341413
-0.002719017352982482
-0.001746823181240827
-0.0035364986853212424
-0.0017859221939046533
-0.0026229443538884883
-0.0017971979052976272
-0.0031018089421006173
-0.001769367672041068
-0.0027742912651540982
-0.0017108619171491142
-0.004084233057904712
-0.0016584790427808386
-0.002882803427759763
-0.001759286986493801
-0.0031194558523342554
-0.0017233778708877251
-0.0026959580608374566
-0.0015999091735749214
-0.0037076770468915327
-0.0015142326125444348
-0.002842215356012221
-0.0014244288849599082
-0.0032975592109867656
-0.00130767772240951
-0.0027143902664891594
-0.0011570681179495833
-0.002351904197277089
-0.0009850178245987625
-0.0025762285884318886
-0.0008076445357137439
-0.003351481630801669
-0.0006347389917005584
-0.0025536097762687057
-0.00046902122571436947
-0.004045809855868662
-0.00031339745265126975
-0.0027271381978750493
-0.00017969944985923386
-0.0034079149708461484
-7.65888048196147e-05
-0.002728689079622752
5.9268592435932115e-06
-0.0032735338389579026
8.74732237279419e-05
-0.0028383100832487743
0.0001719978616694722
-0.003375047400044269
0.0002460332193170247
-0.0029348653746765836
0.0002916988923868098
-0.004003447770519497
0.0003050057348877492
-0.002873872221690139
0.0002892910664464857
-0.0034197316529216595
0.00024082489956150742
-0.002810895865080902
0.00015452986211576903
-0.0029780604644930025
4.1058530462927326e-05
-0.00283927118807405
-7.151676152183296e-05
-0.0035043348455423597
-0.00016054165571665783
-0.0027362997813979184
-0.00023368996238076927
-0.004082132128880654
-0.0003078395289378356
-0.002697984616718674
-0.000391277272920378
-0.0036527243432793173
-0.00047569177086889116
-0.0026834889758270077
-0.0005609100843751982
-0.0029757813864761157
-0.000656689639187629
-0.002809496780409905
-0.000766901491505709
-0.003609311105807383
-0.0008687162232698388
-0.002965788145842932
-0.0009315847869741817
-0.004189846986826163
-0.0009644862867211858
-0.002916344685113589
-0.0009932632860871523
-0.003794367134842627
-0.0010379066990513846
-0.002735650359322299
-0.0010898464916040613
-0.002546519111355827
-0.0011438225362226783
-0.002829787951399441
-0.0012043899700448228
-0.0039311745748147366
-0.0012859052728237596
-0.0027241270725877798
-0.0013711810325262074
-0.0043913121762606255
-0.0014112704550375815
-0.002659667625369256
-0.0014265917505076233
-0.0037119173268678808
-0.0014299040407484691
-0.002608000735941522
-0.0014494354240246125
-0.003946587530411003
-0.0014825294788587233
-0.002560903465949041
-0.0015226215468859216
-0.0037261737699800976
-0.0015920470263963242
-0.002513327981845189
-0.0016621197942062493
-0.004444493934545767
-0.0016830040011415394
-0.0025978495704665748
-0.0016610469128827455
-0.0037895168292541147
-0.001652979446207081
-0.002561514603874219
-0.0016735396348374618
-0.0027280446255757164
-0.0016924921417731747
-0.002432380368625107
-0.0017101613859902924
-0.0038647836592452184
-0.0017269870824938973
-0.0024373903184241276
-0.0017785248958635809
-0.00453099274690958
-0.0017686288303270816
-0.0023321849940123886
-0.0018433507125751104
-0.0039697991937449805
-0.0018210842924994402
-0.0022670966057028053
-0.0017145841673544822
-0.0027081950260758932
-0.0016859803418207667
-0.0022015252794325866
-0.0016843130824570295
-0.00414014988938356
-0.0016779710541521722
-0.002183026957286917
-0.0017023623596561413
-0.00461037138029285
-0.0017051362099073126
-0.002156193273370074
-0.001600848982484233
-0.0040173394310444215
-0.0017027481264914933
-0.0021317104260979002
-0.0016434666799216222
-0.002898727755770303
-0.0016265812113858376
-0.0020529549164095356
-0.0014799052125448616
-0.004138913619146799
-0.0014268563208601453
-0.0019492322260449223
-0.00143296021775469
-0.0029717610193872213
-0.0014418573748397536
-0.001837714334334071
-0.00146924555598276
-0.004114679610935015
-0.0013319392595700795
-0.0017595636930381586
-0.001432928661544929
-0.00397691382216472
-0.001366896140134303
-0.0016823070574973813
-0.0013313039871058693
-0.0041781432729523305
-0.0012694191268385001
-0.001603181692102066
-0.0013015460247407813
-0.00467700768641272
-0.00123238621265739
-0.0015306880037274555
-0.0012521653014912024
-0.003998677021637796
-0.0013122137309125378
-0.0014846076882083883
-0.001056985081554999
-0.003163395405922101
-0.0011811743156829623
-0.0014272249968472013
-0.0010294626935467026
-0.003967483239267006
-0.0011814311328710195
-0.0013439455372829846
-0.0010418461855886605
-0.002619906073873873
-0.00118692727592829
-0.0012159472284750308
-0.0010045191348177307
-0.003980996689088639
-0.0012853766642629948
-0.0010887550459806547
-0.0010191991267247574
-0.0033433014868748836
-0.0013534169151467102
-0.000977527397540161
-0.0010903031275950185
-0.004173538107312825
-0.0014294323801509374
-0.0008684591336876634
-0.0011468136290069006
-0.004705072495636451
-0.001460795903153408
-0.0007584479749475427
-0.0011727847018530957
-0.0041283574716862986
-0.0015224399738173705
-0.000651714092125997
-0.0012472879953855267
-0.003321280362891228
-0.001654593624662176
-0.0005593330284124845
-0.0015460893117108189
-0.00425677985978469
-0.0018080184365076822
-0.0004632757972511311
-0.0018399889455641026
-0.0029825104307216544
-0.002006590578587103
-0.0003481475197603946
-0.002265851146373842
-0.004218860527576637
-0.002446925864979659
-0.00021201522138144803
-0.0027213422858296215
-0.0038327970035535682
-0.0029544343278811902
-8.493036382066296e-05
-0.003302443513206928
-0.004159578440125895
-0.003606038678910615
1.2036906844764159e-05
-0.004031150258234166
-0.004695913637950018
-0.00444107420933714
7.796501814834181e-05
-0.0050478071592623954
-0.003985081140442253
-0.005634202873763187
0.00011466323972614482
-0.006167670784740897
-0.003560009382870845
-0.006502387735151046
0.00011989729303567043
-0.007018375600023471
-0.004036967519200979
-0.007418194561986853
8.819520279659731e-05
-0.0077728426090238854
-0.004723373789372342
-0.00809816969039662
3.0505152081621717e-05
-0.008352442979132351
-0.004011657501760896
-0.008685279045128197
-3.539653126413358e-05
-0.008861775495115937
-0.004326875920313497
-0.008923664284197509
-0.00010102761265130467
-0.008971211581581732
-0.0037554158422073857
-0.008924438013503854
-0.00017772543577951517
-0.00878104155769122
-0.004858688394470104
-0.008531475682124444
-0.0002803672936889008
-0.008160274133289068
-0.004063431359013953
-0.007808931237587085
-0.00040954074656489645
-0.007443661817506841
-0.003706107527985762
-0.007014062723705514
-0.0005574023624682088
-0.006579283843233446
-0.0041890679114349365
-0.006102067751579323
-0.0007158545673851892
-0.0057246314695582725
-0.0048767554903359775
-0.005315002138156418
-0.0008823218879999739
-0.0049774723906464875
-0.00421831492285171
-0.004673550458655634
-0.0010524075191974617
-0.004377115036285214
-0.0036002069557641153
-0.004171741847463991