# vtk DataFile Version 1.0
GRUMMP topologically 2D mesh
ASCII

DATASET UNSTRUCTURED_GRID
POINTS 6176 float
  1.0000000000000000   0.0000000000000000   0.0000000000000000
  0.9979736161243241   0.0002872981906159   0.0000000000000000
  0.9959038003591104   0.0005818082753016   0.0000000000000000
  0.9937894604158818   0.0008826109490225   0.0000000000000000
  0.9916311447855282   0.0011889740049165   0.0000000000000000
  0.9894256878168368   0.0015011074645448   0.0000000000000000
  0.9871732566523234   0.0018189104108560   0.0000000000000000
  0.9848739492731372   0.0021423104928037   0.0000000000000000
  0.9825241245750710   0.0024717658271048   0.0000000000000000
  0.9801244133260449   0.0028071825305054   0.0000000000000000
  0.9776732769852096   0.0031487906039340   0.0000000000000000
  0.9751690039483889   0.0034968357351786   0.0000000000000000
  0.9726117072730877   0.0038512643819321   0.0000000000000000
  0.9700001180350898   0.0042121148976419   0.0000000000000000
  0.9673332227148538   0.0045793859121594   0.0000000000000000
  0.9646079236541195   0.0049533708962095   0.0000000000000000
  0.9618249648196705   0.0053338679490647   0.0000000000000000
  0.9589807878895711   0.0057213439443832   0.0000000000000000
  0.9560767311296049   0.0061156062701256   0.0000000000000000
  0.9531120216710255   0.0065167463399167   0.0000000000000000
  0.9500819018783057   0.0069253778138591   0.0000000000000000
  0.9469876484068450   0.0073412143029309   0.0000000000000000
  0.9438286210030068   0.0077641908681895   0.0000000000000000
  0.9406001269296587   0.0081947829660712   0.0000000000000000
  0.9373041277084813   0.0086325757434285   0.0000000000000000
  0.9339368121646437   0.0090779560824189   0.0000000000000000
  0.9304976431076690   0.0095309377793780   0.0000000000000000
  0.9269838874379289   0.0099918267186165   0.0000000000000000
  0.9233965242394278   0.0104604374002928   0.0000000000000000
  0.9197323684717913   0.0109371203977286   0.0000000000000000
  0.9159901296799260   0.0114219111797446   0.0000000000000000
  0.9121662515702946   0.0119150917142392   0.0000000000000000
  0.9082612640703632   0.0124164093968364   0.0000000000000000
  0.9042711890176098   0.0129261849544228   0.0000000000000000
  0.9001985925103467   0.0134439182275261   0.0000000000000000
  0.8960367883853674   0.0139703538547480   0.0000000000000000
  0.8917881131106570   0.0145051006126241   0.0000000000000000
  0.8874465968544013   0.0150488093430172   0.0000000000000000
  0.8830132689405343   0.0156012428338051   0.0000000000000000
  0.8784843643309772   0.0161627200549514   0.0000000000000000
  0.8738585592690924   0.0167332093564690   0.0000000000000000
  0.8691331845657406   0.0173128340473851   0.0000000000000000
  0.8643080629784704   0.0179014022230632   0.0000000000000000
  0.8593790220315882   0.0184992057974382   0.0000000000000000
  0.8543443022105112   0.0191062525475961   0.0000000000000000
  0.8492020742372332   0.0197225542022908   0.0000000000000000
  0.8439504592998461   0.0203481184762133   0.0000000000000000
  0.8385847225217766   0.0209832807547837   0.0000000000000000
  0.8331043690503205   0.0216278714070098   0.0000000000000000
  0.8275075883744546   0.0222818740978654   0.0000000000000000
  0.8217896079901662   0.0229456038551552   0.0000000000000000
  0.8159499389768221   0.0236188617887649   0.0000000000000000
  0.8099850870934132   0.0243017702717010   0.0000000000000000
  0.8038929332928342   0.0249942623102002   0.0000000000000000
  0.7976697970229181   0.0256964297179088   0.0000000000000000
  0.7913134730328051   0.0264081777898121   0.0000000000000000
  0.7848218596203610   0.0271293903098903   0.0000000000000000
  0.7781898173908960   0.0278602762976724   0.0000000000000000
  0.7714169256365310   0.0286005013921829   0.0000000000000000
  0.7644979701754163   0.0293502351726533   0.0000000000000000
  0.7574308659438134   0.0301093068082177   0.0000000000000000
  0.7502135053150701   0.0308775557618342   0.0000000000000000
  0.7428404612557281   0.0316551512399728   0.0000000000000000
  0.7353096164115749   0.0324418730798164   0.0000000000000000
  0.7276172963491144   0.0332375368705936   0.0000000000000000
  0.7197598859172740   0.0340418579688506   0.0000000000000000
  0.7117355290536627   0.0348543282856948   0.0000000000000000
  0.7035389878799579   0.0356747811793425   0.0000000000000000
  0.6951650952820780   0.0365031090698871   0.0000000000000000
  0.6866122709923126   0.0373388258653197   0.0000000000000000
  0.6778754950330185   0.0381817369178559   0.0000000000000000
  0.6689534383202176   0.0390312029136988   0.0000000000000000
  0.6598376964403885   0.0398871771799410   0.0000000000000000
  0.6505290121117546   0.0407486821288951   0.0000000000000000
  0.6410191910005383   0.0416153892989160   0.0000000000000000
  0.6313056496470314   0.0424862165552765   0.0000000000000000
  0.6213823079172336   0.0433602824420315   0.0000000000000000
  0.6112489281649386   0.0442362457646169   0.0000000000000000
  0.6008963123926909   0.0451137308907019   0.0000000000000000
  0.5903211292528141   0.0459917803130241   0.0000000000000000
  0.5795184839365645   0.0468692540951747   0.0000000000000000
  0.5684857150099230   0.0477443424041717   0.0000000000000000
  0.5572148862675538   0.0486154402631608   0.0000000000000000
  0.5457024491672809   0.0494805599680832   0.0000000000000000
  0.5339780836677636   0.0503353194116202   0.0000000000000000
  0.5219860728183490   0.0511813660693644   0.0000000000000000
  0.5101253307512127   0.0519891081313360   0.0000000000000000
  0.4985043971600128   0.0527514649709832   0.0000000000000000
  0.4871181100865982   0.0534694955937708   0.0000000000000000
  0.4759663238182478   0.0541439373921026   0.0000000000000000
  0.4650424897306392   0.0547759224024376   0.0000000000000000
  0.4543414694194311   0.0553665338532900   0.0000000000000000
  0.4438615277983380   0.0559167464857066   0.0000000000000000
  0.4335966445555638   0.0564277439227250   0.0000000000000000
  0.4235422171719039   0.0569005367499369   0.0000000000000000
  0.4136931783754329   0.0573360485787389   0.0000000000000000
  0.4040479201781875   0.0577350333573017   0.0000000000000000
  0.3946007843384192   0.0580984587592611   0.0000000000000000
  0.3853459130056055   0.0584273588583778   0.0000000000000000
  0.3762828394437238   0.0587225582688298   0.0000000000000000
  0.3674052759622001   0.0589850521268143   0.0000000000000000
  0.3587104110044708   0.0592156767487264   0.0000000000000000
  0.3501952433465900   0.0594152538281565   0.0000000000000000
  0.3418548081050912   0.0595846279097528   0.0000000000000000
  0.3336858663230149   0.0597246577421592   0.0000000000000000
  0.3256868701986138   0.0598362486465025   0.0000000000000000
  0.3178507769372301   0.0599203474438374   0.0000000000000000
  0.3101776523444911   0.0599777679649948   0.0000000000000000
  0.3026620994593082   0.0600092896252224   0.0000000000000000
  0.2953022098091474   0.0600156089816429   0.0000000000000000
  0.2880942515540157   0.0599974067416477   0.0000000000000000
  0.2810344582773878   0.0599553507162620   0.0000000000000000
  0.2741224198462300   0.0598902308958287   0.0000000000000000
  0.2673508102792782   0.0598027829062179   0.0000000000000000
  0.2607208372897423   0.0596938009430880   0.0000000000000000
  0.2542268737219818   0.0595639532054747   0.0000000000000000
  0.2478699323930078   0.0594139942796022   0.0000000000000000
  0.2416426526986943   0.0592444560641495   0.0000000000000000
  0.2355443386744786   0.0590559928562533   0.0000000000000000
  0.2295742285057687   0.0588492600763349   0.0000000000000000
  0.2237267309732288   0.0586247739586633   0.0000000000000000
  0.2180011540540604   0.0583832555000465   0.0000000000000000
  0.2123936096745636   0.0581252700988444   0.0000000000000000
  0.2069018249031851   0.0578514118247249   0.0000000000000000
  0.2015265925874962   0.0575624139311738   0.0000000000000000
  0.1962639217171782   0.0572587327640815   0.0000000000000000
  0.1911098627978642   0.0569407701058159   0.0000000000000000
  0.1860635373512509   0.0566090833477142   0.0000000000000000
  0.1811225555455632   0.0562641183158228   0.0000000000000000
  0.1762831066659017   0.0559062017034564   0.0000000000000000
  0.1715472965099615   0.0555361405439852   0.0000000000000000
  0.1669099315072494   0.0551541804881659   0.0000000000000000
  0.1623702175183220   0.0547608759938091   0.0000000000000000
  0.1579259317985442   0.0543566416724963   0.0000000000000000
  0.1535748664842349   0.0539418626674859   0.0000000000000000
  0.1493147619729656   0.0535168899310313   0.0000000000000000
  0.1451447283274916   0.0530821904592715   0.0000000000000000
  0.1410625235604109   0.0526380756497570   0.0000000000000000
  0.1370659530359299   0.0521848322503466   0.0000000000000000
  0.1331567814638518   0.0517231967360234   0.0000000000000000
  0.1293276562313525   0.0512528455259629   0.0000000000000000
  0.1255804504092525   0.0507745502773552   0.0000000000000000
  0.1219131281255899   0.0502885988465475   0.0000000000000000
  0.1183237015509818   0.0497952534010120   0.0000000000000000
  0.1148102318092792   0.0492947513229479   0.0000000000000000
  0.1113720175725520   0.0487874812015910   0.0000000000000000
  0.1080070759532941   0.0482736140267307   0.0000000000000000
  0.1047146335147149   0.0477534816268928   0.0000000000000000
  0.1014927513745349   0.0472272179600503   0.0000000000000000
  0.0983395479756496   0.0466949369878610   0.0000000000000000
  0.0952554508934213   0.0461571322873805   0.0000000000000000
  0.0922363866432952   0.0456135046927440   0.0000000000000000
  0.0892828700951544   0.0450645654218522   0.0000000000000000
  0.0863942718297865   0.0445106297655928   0.0000000000000000
  0.0835678320075330   0.0439515803137779   0.0000000000000000
  0.0808019575920066   0.0433874837688950   0.0000000000000000
  0.0780971710598979   0.0428188278852694   0.0000000000000000
[...]
POINT_DATA 6176
SCALARS continuity float
LOOKUP_TABLE default
-0.007906437502791066
-0.00593252931924192
-0.005822706860465699
-0.005850960597763758
-0.0058461814388275305
-0.005792585814034225
-0.005746632985865642
-0.0056898112949713775
-0.0056253318604389
-0.005577487333715181
-0.0054974741417691654
-0.005426637230385709
-0.0053591474893658
-0.00529158173040786
-0.0052386296512291755
-0.005200936432397507
-0.005118144413790286
-0.005035441176098582
-0.004935783509043821
-0.004838384958551685
-0.004778846478224751
-0.004725682534997135
-0.00468450091285049
-0.004674191720751811
-0.004640829092257881
-0.0045617988389403995
-0.004462679877571832
-0.00437367993016815
-0.004303033816742481
-0.00424776372808292
-0.0041912392188959485
-0.00413277218762626
-0.004078081353329389
-0.004038016192671689
-0.003996797594666981
-0.0039184913738925225
-0.0038147867934293688
-0.0036920866830762304
-0.00359692317603352
-0.003528113114071103
-0.003460482730609268
-0.003393317995637443
-0.0033282386257332324
-0.003237184337811491
-0.0031139985762615187
-0.0029753099364129036
-0.002852938729799065
-0.002759743783807911
-0.002676025311699921
-0.0025897843491033993
-0.0025011419745239235
-0.002396108559639127
-0.002261962120029338
-0.0021094034000379495
-0.0019643147618406053
-0.0018424419368348842
-0.0017335940996017782
-0.0016226313741102253
-0.0015088499812999983
-0.0013871787838088076
-0.0012462787003256592
-0.0010882184676984372
-0.0009294613352863781
-0.000780125817131466
-0.0006336488274215768
-0.0004835204732112436
-0.00033063315262076015
-0.00017933261813145489
-3.098305070183724e-05
0.00011756649957853881
0.00027362731577924897
0.0004409409724762169
0.0006165606197034076
0.0007948719609616035
0.0009710747519067242
0.001140886356281812
0.0013002129027267508
0.0014479479922068013
0.0015892332255669328
0.0017340897387478752
0.0018934691665754178
0.0020690414954845967
0.002254789165067277
0.0024483011480941922
0.002622025735268863
0.0026044794048216764
0.0025930240909803597
0.002677315981741162
0.002720346410912338
0.0027402369234237403
0.0027568056403520823
0.0027714532927561645
0.0027771355396353854
0.0027691451586637256
0.0027472529368443633
0.0027110380434348393
0.002656659964808789
0.0025819574687156494
0.002495186554643201
0.0024141204780174135
0.002348322643106754
0.0022906806010802487
0.002230256283792363
0.0021636685517919963
0.0020938609410649134
0.002016854795528713
0.0019235936885219134
0.0018181205317599172
0.0017269007032379032
0.0016740434065548417
0.0016517985975169074
0.0016344139911652492
0.0016073516521868093
0.0015738873738594503
0.0015353233669232102
0.001476270859579459
0.0013862626482879694
0.0012928289091381048
0.001250169096331357
0.0012700636014322856
0.0013086607859604956
0.001320375887882603
0.0013056474192420602
0.001279568834350829
0.001236870705289373
0.0011501670728323865
0.0010249043147414962
0.0009309259983432086
0.000936469455969629
0.0010202678688136751
0.0011029919185951787
0.0011259160648570217
0.0011023590142944279
0.0010327874111964708
0.0008881662669436401
0.0007119654625541286
0.0007144350032951097
0.000851886543249856
0.0009103918699222725
0.0008942770786412087
0.0008674299919199685
0.0008461985878484685
0.0008051122717470471
0.0006717140137198585
0.0003557607765339157
2.3959593133700513e-05
0.00014536834374230512
0.0004493395253888643
0.0005199292391134472
0.00048303846146677796
0.00042440215632814123
0.00026837419415856004
3.5514375358245204e-05
-0.0007273333915273671
-0.0004155559256050043
-0.00048812961536751873
-0.00044840644672074453
-0.0004110977381974552
-0.0003918793942833357
-0.0005411010187482345
-0.0005297868979117353
-0.0005408621488189159
-0.0014849388295191596
-0.001226223328159007
-0.0013289007218290746
-0.0014887097325173427
-0.0016523109453334664
-0.0016490862247535937
-0.0016924636608368375
-0.001637549240975565
-0.0012562001627374503
-0.001934070892723215
-0.002342075582660814
-0.002703062328591986
-0.002922285859955887
-0.003137665952885804
-0.0032040062322560613
-0.004394470780887854
-0.0034875053056804394
-0.004620528130319435
-0.0037052605240481653
-0.004678854189310099
-0.0035044058966162248
-0.0047525169010326634
-0.003739413567889747
-0.0051375039844939
-0.004275461054298176
-0.00572672886862647
-0.004909914444439168
-0.006491854944803867
-0.005324828328755208
-0.005796516141590881
-0.006199753362099824
-0.006082979461370626
-0.00600706038426573
-0.005988587368691984
-0.006321495303469865
-0.006404337837845508
-0.006730279730455498
-0.0069738616206338295
-0.007546976812576681
-0.007620138384650889
-0.0073354299782101935
-0.007172788863104635
-0.008895370891352916
-0.009828867183327619
-0.009089179496328145
-0.009050530261257692
-0.009728321492460041
-0.010166729822437213
-0.009598462226770738
-0.009782131850989252
-0.009900056542525328
-0.009772457513450043
-0.009459876179098171
-0.009388679325319504
-0.009926229913350747
-0.009333304905142281
-0.009856440142683253
-0.00909676674248521
-0.00903921643851096
-0.009269539038198108
-0.009294247377220172
-0.009032043035916136
-0.008886487006811246
-0.00855748968125735
-0.008410266132953127
-0.008614455171174552
-0.00834146096580387
-0.008751318641121159
-0.007861599474612582
-0.00821655171439571
-0.00770022061080393
-0.00823081468525993
-0.007031792154996795
-0.007634372394553891
-0.00655082554253804
-0.007188943479046451
-0.006137211340046189
-0.006838851329786949
-0.005844239027393687
-0.0065197985369289
-0.005279427046967146
-0.005998601016838833
-0.004785066520688757
-0.005599563071268367
-0.004448675589682258
-0.005407764256808469
-0.004303724880591569
-0.004269022527524662
-0.004023256891521325
-0.004262262175726938
-0.0035546566382836176
-0.0036156984720703065
-0.0034337881479276668
-0.003265905971130221
-0.00307303166312786
-0.0027954148031982175
-0.002628187393124156
-0.0025882125420008907
-0.002984799879873261
-0.002141631569664964
-0.0022646481885527665
-0.0021855575601330184
-0.0019481973624091735
-0.0019878255761059714
-0.0021522499195872724
-0.0020663193568896633
-0.0018441059656491142
-0.0017286182534473483
-0.0018593800488930872
-0.0009997005180213527
-0.0009492326716007876
-0.0009405082134989538
-0.0009240911475459536
-0.0011995492736184955
-0.0014502540661617991
-0.0012812081365785911
-0.0009273333961936932
-0.0006688022524530168
-0.0005333145597778518
-0.0004802319608803469
-0.0004321736736655183
-0.0003698619193745717
-0.0003099081878504805
-0.00035752722662265424
-0.0005230723070106528
-0.0005629154250168861
-0.00040342053637268356
-9.62746535951073e-05
0.00012115498695089537
0.0002032530743544607
0.00023228492740480134
0.0002183868799471471
0.00012172881442535315
2.9034450441887694e-05
5.268184807119925e-05
0.00021809345116107545
0.0004101942484302592
0.0005256817849242172
0.0005700783318712358
0.0005824508977811964
0.000557570770616761
0.0005149424038560194
0.0005126045395961161
0.0005916626490283343
0.00072675314141293
0.0008503351671356696
0.000935303578118108
0.0010023227593740623
0.0010675466880535555
0.0011296633211171803
0.0011816450949930267
0.0012270640789005549
0.0012900798247493736
0.001393995761120469
0.0015336611266378644
0.001672739329639309
0.0017807034972178795
0.0018564093508072245
0.0019094016104366047
0.0019462113625935264
0.001976747863841414
0.0020124208329628792
0.002052967011692707
0.002081048268680194
0.002078888311386233
0.0020432701111524217
0.001978446821319315
0.0018867414897811847
0.0017685801798447461
0.0016275687712536404
0.0014715966455400252
0.0013088040093152847
0.0011428545241471625
0.0009695585501353435
0.0007789533902913577
0.0005667463992618916
0.0003981572972356183
0.00018924210616863796
-0.00014343402778652746
-0.00048159848572826086
-0.0007937021290080036
-0.001067811168301465
-0.0013026574223804364
-0.0015145608115980317
-0.001724350748442584
-0.0019423143887017658
-0.002168537536335159
-0.0023977784552949486
-0.0026156472389191974
-0.002808610813120313
-0.002978199309326025
-0.0031369723494372413
-0.0032928356280947407
-0.0034459840041357265
-0.0035961815140844655
-0.0037444169586093963
-0.0038887135621201983
-0.00402518779190035
-0.004154390024216032
-0.004278434698318821
-0.0043932582169326434
-0.004494999263644189
-0.004586672728538967
-0.004675146091418325
-0.004758959957557343
-0.00483616463806483
-0.004918255869795145
-0.005012308044164243
-0.005097337802593099
-0.005156689522551902
-0.005207472947127187
-0.005266364551949417
-0.005330653459404037
-0.005391450558316679
-0.005444254975763924
-0.0055029806602436785
-0.00558876423679492
-0.00568521026876482
-0.005749133204843464
-0.005786039327034783
-0.0058259781171645505
-0.005874749893111063
-0.00592317422990185
-0.005964132432405465
-0.0060048799436182064
-0.006068568923735502
-0.006155052232327325
-0.006220690437874052
-0.006265052146477941
-0.0062824804851739635
-0.006299462381532107
-0.006324037399777813
-0.006352856796921775
-0.006398297204074901
-0.00645809872246855
-0.006517000970804835
-0.00652181940824837
-0.0065295144267859696
-0.006548605324792689
-0.006572533711604166
-0.006596194542507606
-0.006619905113768945
-0.00665429329700476
-0.006709167948383161
-0.00675690101480536
-0.006778638009971282
-0.006790921225464828
-0.006787015186140803
-0.006784567195035778
-0.006798457435581525
-0.006816695093943944
-0.006847738328741674
-0.00686818174877435
-0.0068747071943000395
-0.006886739356627456
-0.006881901062082749
-0.006893922732022436
-0.006911094987880976
-0.006891301608602572
-0.006848438940504951
-0.007307635970447218
-0.006362812988360806
-0.007349064323450336
-0.006670775769980016
-0.006008970481667049
-0.005781218594309511
-0.006243171827579141
-0.006511100238105097
-0.00605396976418362
0.0019588902074219516
-0.005904330065273966
-0.009468134134963757
-0.0058954459500132235
0.00263631228003142
-0.005858485224778855
-0.009833544388107664
-0.005810452430992313
0.0019102890334581838
-0.005753616636981477
-0.008958135066875183
-0.005721794231476909
-0.007510419168194851
-0.0056520849188334684
-0.008830117101809976
-0.005591602503553574
0.0018708667633315138
-0.00552191571750758
-0.007256899249945359
-0.005434604173221505
0.0027469764844825027
-0.005356988453997215
-0.00840526363492633
-0.005293153624199707
0.0018267591473376608
-0.0052464278362828465
-0.006328487367891062
-0.005212670576085463
-0.00752619695198165
-0.005136709277743685
-0.00769523595748737
-0.005046582581262049
0.0018154758148720403
-0.0049389055107549205
-0.00565892721613282
-0.004843671842448369
0.0034720704133896184
-0.0047742279963816905
-0.007546836659627891
-0.004721648051144737
0.0018290755294608498
-0.004693853783113387
-0.005835358500748165
-0.004680918903425914
-0.007033457767059405
-0.004613948536457034
-0.006979298825301386
-0.004533993143096205
0.0018572117677189692
-0.004429366503005808
-0.005879170396159066
-0.004362079311546586
0.0027016291386630807
-0.0042961085805172956
-0.006935862806664087
-0.004237632397519179
0.0018478402518027513
-0.004179179177289139
-0.0051040193707469934
-0.004122531976943359
-0.006139698923562402
-0.0040716202143883376
-0.005893694854570739
-0.004037547572563335
0.0018135763357953485
-0.003984536533411535
-0.0042845341085454266
-0.0039046932436227096
0.003809369437647102
-0.0037910260240662315
-0.0051004942107472015
-0.0036762093067088794
0.0017843383156712332
-0.003586120153860523
-0.0037567862530137478
-0.0035155554725505686
-0.005692554411942817
-0.0034460787208045246
-0.004532760409473013
-0.003382025975043928
0.0017624468357507665
-0.003310391378384683
-0.0032648238915837873
-0.003209376299780551
0.0027164547449605603
-0.0030842048793577924
-0.004283108415002268
-0.002946516630857578
0.0017538281323713687
-0.0028329201249764164
-0.0030792187045654857
-0.0027413896872167044
-0.005955793833143585
-0.002654555673299524
-0.004163097873741619
-0.0025693465807658904
0.001692447972092065
-0.0024791961931164273
-0.0037042852579799042
-0.0023656112486610897
0.0031853512583219085
-0.0022253919159804176
-0.004274157553287301
-0.0020723585004671975
0.0017101075023845081
-0.0019332312182044197
-0.0033650476916150976
-0.0018150692572237955
-0.006270172008679967
-0.0017039448348927753
-0.004100886528755044
-0.0015926751471006452
0.0017612774185374437
-0.0014792926596919813
-0.002839518337180225
-0.0013529317024423206
0.002789103612773199
-0.0012058991941394073
-0.003605871627948197
-0.0010461389997732094
0.0018469659569356892
-0.0008900555112918918
-0.002628322787257759
-0.0007411022138190019
-0.005582486897864404
-0.0005922921924389931
-0.002918072563065581
-0.0004402365364233963
0.0018791600877279678
-0.0002870573385996696
-0.002067639325647857
-0.00013642396838466086
0.0043649499432048345
1.0784750505729826e-05
-0.0023264353530128494
0.0001604666887371474
0.0018364255351411712
0.00032002004915001865
-0.0010588989174341612
0.0004911703760928705
-0.0055110887734648745
0.0006693309845670326
-0.0014617847402907096
0.000849013959823157
0.001804782787392361
0.0010258800623305828
-0.0009063679720165891
0.0011946019512750446
0.0028834345791912065
0.001351812417328958
-0.0016145078315088386
0.0014978901977285297
0.0017643754938194427
0.0016393178050131
-0.0010455475778426394
0.0017883115579783756
-0.004740337362546501
0.0019535576098157204
-0.0014300514602861663
0.0021339084982760314
0.0017365906110326295
0.002321357809341797
-0.000934567695811267
0.0025136660720229006
0.003148569014539962
0.002680050355608166
-0.0007269566806295312
0.0025992290567173003
0.00166940280356956
0.0025777185743534464
-0.0002815939322529044
0.002661204780896432
-0.004304575840786491
0.0027038565281389828
-0.00020341680753585475
0.002724617693663528
0.0015948952536708673
0.0027419752807204714
-0.00020399965131646
0.0027593097092630495
0.002945137209487117
0.0027697806007930172
9.13000274029401e-05
0.002766997844126642
0.0016387274874925836
0.00274895393115641
0.00018762410402054728
0.0027159237658190933
-0.003726473905103262
0.0026661151689078874
-7.453278531952776e-05
0.002597463299480298
0.0017008946758956841
0.0025149790580431875
-0.0003242087766610349
0.002434763854653374
0.0035258633859369397
0.0023697556933695756
-4.9005820874353364e-05
0.0023177916929267768
0.0018121798096339997
0.002265882022970577
3.205564371084613e-05
0.0022062811210572307
-0.002914450239020767
0.002140033947712593
0.00026996463127057654
0.002067675537763396
0.0018170339521592165
0.001983575856164281
0.0004965002811919708
0.0018886895100592063
-0.0067305421768681945
0.0018011946462330403
0.0007118674946286319
0.0017463840064676458
0.0017477476682368968
0.0017287517745753964
0.0008869199931435925
0.001724519742926333
-0.0033736980992581703
0.0017120878786342267
0.0009794023764506516
0.0016852063296433596
0.0016374583706766875
0.0016507666002911047
0.0009962916496149108
0.0016023810458420003
4.485238499141285e-05
0.0015326362895613187
0.0007576928928167037
0.0014549335598297893
0.0015281542040037962
0.0014086401797752425
0.0005858965583303183
0.0014255394589822036
-0.0024058571809561884
0.0014774707116446864
0.0006434313959731154
0.0015171751933476725
0.0013159302170258156
0.0015172307164469962
0.0009222960567517377
0.001496552554291523
0.0029229641732420935
0.0014582909295560804
0.0010902313051348572
0.0013936542832700826
0.0013531605201102129
0.001304415073829747
0.0012146288426062239
0.0012192576490463827
-0.0018275795313802434
0.0012165810048406355
0.001282821065866511
0.0012945982001274206
0.0015775954231987996
0.0013959729927107904
0.0013242828324597836
0.001449652169791884
0.0034033034674957356
0.0014335877906619266
0.0013741856432125446
0.0013713386363446065
0.0015919326594494405
0.0012917766767266761
0.0014018918414605657
0.0011527181668469092
-0.002241634235132218
0.0010955081216502216
0.0012202125562414917
0.0012128866348626783
0.0015035095564667395
0.001323102285187868
0.0011433182038942124
0.0013277109457273848
0.002923957760408581
0.001307275614270485
0.0013102747336913652
0.0012846451309355882
0.0014413089737615298
0.0012361987978014505
0.0013831383309394745
0.0011287161820414697
-0.0014587660574264727
0.0009429533866734203
0.0014373403609086578
0.0006541773543930082
0.0013452995685732773
0.0006444601172469823
0.001499767348700993
0.0008985430827229823
0.003071842382707793
0.0010415810906295756
0.0015164825434245293
0.0010318309031149943
0.0011440771480234662
0.000964349375183016
0.0014786580521512177
0.0008372346746111259
-0.00044172932336018414
0.000582507254651046
0.0013851932452426964
0.00037787833538974777
0.0010663351748546421
0.00013628063105620376
0.0013205227021794998
6.835077848758023e-05
0.002965983809303762
-2.100851578838856e-05
0.0013101867899787385
0.00013771395876179828
0.0008675467922639787
0.00028119941865907197
0.0013980079302487879
0.0001863536654504513
-0.006648495777770878
0.00012909132570157502
0.0014453056642319774
6.41268487636584e-05
0.0008135397184171919
-0.0002291006568843182
0.0014978071883367272
-0.0005195410478094551
0.00351464598780291
-0.0006398861323447124
0.0015357142561398679
-0.0009409900410056117
0.00048161705998133207
-0.0008512341638205094
0.001565137344472951
-0.0010560000305890518
-0.0009409456451048069
-0.0009138184965554392
0.0015628493531599644
-0.0008663948504651585
0.0009503018960392978
-0.0008487824471318882
0.0015154212462734702
-0.0009571186438508471
0.002983754042813957
-0.0015383755743880398
0.001473183292368692
-0.001656702011523158
0.0009975497002766155
-0.002074645977725162
0.0014664092529026345
-0.0020839185921505215
0.00251115153059292
-0.002490511553913469
0.001503865598141425
-0.0028878759156158824
0.0009702611637847058
-0.0029485495957450986
0.0015494020748219827
-0.0030565089492600537
0.003043343555996154
-0.0030041679255661436
0.0015967259020283862
-0.002840439012465831
0.0005474689553922734
-0.002827377441149505
0.001639830013175852
-0.0029313720150145246
-0.001098190672961254
-0.003076090012169587
0.0016759557998479856
-0.0032960187460613507
0.0004669335682407055
-0.0035983824131852857
0.0017036102955771235
-0.003862307559565426
0.0028854924665361967
-0.004214947478687048
0.0017119105158332724
-0.004406073954251677
0.00013814436142541134
-0.004584093715639526
0.0017189495429253822
-0.004939932248597367
-0.006760894996785994
-0.005027088378914057
0.0017404339478584484
-0.005358305121962629
-7.110985945075179e-05
-0.004948604107150679
0.0017924658450520746
-0.005431167754930672
0.003611735231059959
-0.0052749761466814584
0.0018600088295293812
-0.006072222666687823
-0.0003355205872705334
-0.00596450766272407
0.0019353028691467076
-0.007020853415044987
-0.0006632261924585165
-0.007045963363364404
0.0020108416489634405
-0.007967338318647241
-0.0007369227746016806
-0.007979155469765785
0.0020836226325473372
-0.008440906470998289
0.0028385509143135186
-0.009527532465885093
0.0021513167971439215
-0.010076537664897016
-0.00024307358071584006
-0.010345392578799597
0.0022100261528277356
-0.010601653609871363
-3.113940368031258e-05
-0.010947498128535673
0.002264179470201203
-0.011433315769526138
-0.00029951703615538995
-0.010443831465631903
0.002320596772807831
-0.010699733484488182
0.0010565071044000905
-0.01079607474586105
0.0023875088235175462
-0.010669324424185774
0.0001579895526646647
-0.010411109330046159
0.0024623901532018497
-0.01024251405368676
-0.00014843166950166022
-0.010235182089876983
0.002536224788885286
-0.010275879123556151
-0.0006454486768451496
-0.010150724539163393
0.0026005284728493464
-0.00974372380150916
0.00282655629973761
-0.009516033538592863
0.0026520526129414925
-0.009532663159881188
-0.0007434768270228823
-0.008908810056846626
0.0026896160210941244
-0.009128891595086829
-3.7084110758986075e-05
-0.008289830275365385
0.0027119820873960604
-0.008359168807683176
-0.000863827933179798
-0.0081274271010176
0.0027195002064830673
-0.00787102819502813
0.0037362912251217677
-0.007937230461556807
0.00271408069019366
-0.007921585014886956
-0.0011533582944485696
-0.007549621858843829
0.00270086861439281
-0.0072898059350037965
0.001010721381431672
-0.007362770370921414
0.0026829352086911976
-0.006952963211381135
-0.004901270930133327
-0.006641208963051701
0.0026591867005700577
-0.006350872760796894
0.0030116743755292446
-0.00612915461257305