# vtk DataFile Version 1.0
GRUMMP topologically 2D mesh
ASCII

DATASET UNSTRUCTURED_GRID
POINTS 6176 float
  1.0000000000000000   0.0000000000000000   0.0000000000000000
  0.9979736161243241   0.0002872981906159   0.0000000000000000
  0.9959038003591104   0.0005818082753016   0.0000000000000000
  0.9937894604158818   0.0008826109490225   0.0000000000000000
  0.9916311447855282   0.0011889740049165   0.0000000000000000
  0.9894256878168368   0.0015011074645448   0.0000000000000000
  0.9871732566523234   0.0018189104108560   0.0000000000000000
  0.9848739492731372   0.0021423104928037   0.0000000000000000
  0.9825241245750710   0.0024717658271048   0.0000000000000000
  0.9801244133260449   0.0028071825305054   0.0000000000000000
  0.9776732769852096   0.0031487906039340   0.0000000000000000
  0.9751690039483889   0.0034968357351786   0.0000000000000000
  0.9726117072730877   0.0038512643819321   0.0000000000000000
  0.9700001180350898   0.0042121148976419   0.0000000000000000
  0.9673332227148538   0.0045793859121594   0.0000000000000000
  0.9646079236541195   0.0049533708962095   0.0000000000000000
  0.9618249648196705   0.0053338679490647   0.0000000000000000
  0.9589807878895711   0.0057213439443832   0.0000000000000000
  0.9560767311296049   0.0061156062701256   0.0000000000000000
  0.9531120216710255   0.0065167463399167   0.0000000000000000
  0.9500819018783057   0.0069253778138591   0.0000000000000000
  0.9469876484068450   0.0073412143029309   0.0000000000000000
  0.9438286210030068   0.0077641908681895   0.0000000000000000
  0.9406001269296587   0.0081947829660712   0.0000000000000000
  0.9373041277084813   0.0086325757434285   0.0000000000000000
  0.9339368121646437   0.0090779560824189   0.0000000000000000
  0.9304976431076690   0.0095309377793780   0.0000000000000000
  0.9269838874379289   0.0099918267186165   0.0000000000000000
  0.9233965242394278   0.0104604374002928   0.0000000000000000
  0.9197323684717913   0.0109371203977286   0.0000000000000000
  0.9159901296799260   0.0114219111797446   0.0000000000000000
  0.9121662515702946   0.0119150917142392   0.0000000000000000
  0.9082612640703632   0.0124164093968364   0.0000000000000000
  0.9042711890176098   0.0129261849544228   0.0000000000000000
  0.9001985925103467   0.0134439182275261   0.0000000000000000
  0.8960367883853674   0.0139703538547480   0.0000000000000000
  0.8917881131106570   0.0145051006126241   0.0000000000000000
  0.8874465968544013   0.0150488093430172   0.0000000000000000
  0.8830132689405343   0.0156012428338051   0.0000000000000000
  0.8784843643309772   0.0161627200549514   0.0000000000000000
  0.8738585592690924   0.0167332093564690   0.0000000000000000
  0.8691331845657406   0.0173128340473851   0.0000000000000000
  0.8643080629784704   0.0179014022230632   0.0000000000000000
  0.8593790220315882   0.0184992057974382   0.0000000000000000
  0.8543443022105112   0.0191062525475961   0.0000000000000000
  0.8492020742372332   0.0197225542022908   0.0000000000000000
  0.8439504592998461   0.0203481184762133   0.0000000000000000
  0.8385847225217766   0.0209832807547837   0.0000000000000000
  0.8331043690503205   0.0216278714070098   0.0000000000000000
  0.8275075883744546   0.0222818740978654   0.0000000000000000
  0.8217896079901662   0.0229456038551552   0.0000000000000000
  0.8159499389768221   0.0236188617887649   0.0000000000000000
  0.8099850870934132   0.0243017702717010   0.0000000000000000
  0.8038929332928342   0.0249942623102002   0.0000000000000000
  0.7976697970229181   0.0256964297179088   0.0000000000000000
  0.7913134730328051   0.0264081777898121   0.0000000000000000
  0.7848218596203610   0.0271293903098903   0.0000000000000000
  0.7781898173908960   0.0278602762976724   0.0000000000000000
  0.7714169256365310   0.0286005013921829   0.0000000000000000
  0.7644979701754163   0.0293502351726533   0.0000000000000000
  0.7574308659438134   0.0301093068082177   0.0000000000000000
  0.7502135053150701   0.0308775557618342   0.0000000000000000
  0.7428404612557281   0.0316551512399728   0.0000000000000000
  0.7353096164115749   0.0324418730798164   0.0000000000000000
  0.7276172963491144   0.0332375368705936   0.0000000000000000
  0.7197598859172740   0.0340418579688506   0.0000000000000000
  0.7117355290536627   0.0348543282856948   0.0000000000000000
  0.7035389878799579   0.0356747811793425   0.0000000000000000
  0.6951650952820780   0.0365031090698871   0.0000000000000000
  0.6866122709923126   0.0373388258653197   0.0000000000000000
  0.6778754950330185   0.0381817369178559   0.0000000000000000
  0.6689534383202176   0.0390312029136988   0.0000000000000000
  0.6598376964403885   0.0398871771799410   0.0000000000000000
  0.6505290121117546   0.0407486821288951   0.0000000000000000
  0.6410191910005383   0.0416153892989160   0.0000000000000000
  0.6313056496470314   0.0424862165552765   0.0000000000000000
  0.6213823079172336   0.0433602824420315   0.0000000000000000
  0.6112489281649386   0.0442362457646169   0.0000000000000000
  0.6008963123926909   0.0451137308907019   0.0000000000000000
  0.5903211292528141   0.0459917803130241   0.0000000000000000
  0.5795184839365645   0.0468692540951747   0.0000000000000000
  0.5684857150099230   0.0477443424041717   0.0000000000000000
  0.5572148862675538   0.0486154402631608   0.0000000000000000
  0.5457024491672809   0.0494805599680832   0.0000000000000000
  0.5339780836677636   0.0503353194116202   0.0000000000000000
  0.5219860728183490   0.0511813660693644   0.0000000000000000
  0.5101253307512127   0.0519891081313360   0.0000000000000000
  0.4985043971600128   0.0527514649709832   0.0000000000000000
  0.4871181100865982   0.0534694955937708   0.0000000000000000
  0.4759663238182478   0.0541439373921026   0.0000000000000000
  0.4650424897306392   0.0547759224024376   0.0000000000000000
  0.4543414694194311   0.0553665338532900   0.0000000000000000
  0.4438615277983380   0.0559167464857066   0.0000000000000000
  0.4335966445555638   0.0564277439227250   0.0000000000000000
  0.4235422171719039   0.0569005367499369   0.0000000000000000
  0.4136931783754329   0.0573360485787389   0.0000000000000000
  0.4040479201781875   0.0577350333573017   0.0000000000000000
  0.3946007843384192   0.0580984587592611   0.0000000000000000
  0.3853459130056055   0.0584273588583778   0.0000000000000000
  0.3762828394437238   0.0587225582688298   0.0000000000000000
  0.3674052759622001   0.0589850521268143   0.0000000000000000
  0.3587104110044708   0.0592156767487264   0.0000000000000000
  0.3501952433465900   0.0594152538281565   0.0000000000000000
  0.3418548081050912   0.0595846279097528   0.0000000000000000
  0.3336858663230149   0.0597246577421592   0.0000000000000000
  0.3256868701986138   0.0598362486465025   0.0000000000000000
  0.3178507769372301   0.0599203474438374   0.0000000000000000
  0.3101776523444911   0.0599777679649948   0.0000000000000000
  0.3026620994593082   0.0600092896252224   0.0000000000000000
  0.2953022098091474   0.0600156089816429   0.0000000000000000
  0.2880942515540157   0.0599974067416477   0.0000000000000000
  0.2810344582773878   0.0599553507162620   0.0000000000000000
  0.2741224198462300   0.0598902308958287   0.0000000000000000
  0.2673508102792782   0.0598027829062179   0.0000000000000000
  0.2607208372897423   0.0596938009430880   0.0000000000000000
  0.2542268737219818   0.0595639532054747   0.0000000000000000
  0.2478699323930078   0.0594139942796022   0.0000000000000000
  0.2416426526986943   0.0592444560641495   0.0000000000000000
  0.2355443386744786   0.0590559928562533   0.0000000000000000
  0.2295742285057687   0.0588492600763349   0.0000000000000000
  0.2237267309732288   0.0586247739586633   0.0000000000000000
  0.2180011540540604   0.0583832555000465   0.0000000000000000
  0.2123936096745636   0.0581252700988444   0.0000000000000000
  0.2069018249031851   0.0578514118247249   0.0000000000000000
  0.2015265925874962   0.0575624139311738   0.0000000000000000
  0.1962639217171782   0.0572587327640815   0.0000000000000000
  0.1911098627978642   0.0569407701058159   0.0000000000000000
  0.1860635373512509   0.0566090833477142   0.0000000000000000
  0.1811225555455632   0.0562641183158228   0.0000000000000000
  0.1762831066659017   0.0559062017034564   0.0000000000000000
  0.1715472965099615   0.0555361405439852   0.0000000000000000
  0.1669099315072494   0.0551541804881659   0.0000000000000000
  0.1623702175183220   0.0547608759938091   0.0000000000000000
  0.1579259317985442   0.0543566416724963   0.0000000000000000
  0.1535748664842349   0.0539418626674859   0.0000000000000000
  0.1493147619729656   0.0535168899310313   0.0000000000000000
  0.1451447283274916   0.0530821904592715   0.0000000000000000
  0.1410625235604109   0.0526380756497570   0.0000000000000000
  0.1370659530359299   0.0521848322503466   0.0000000000000000
  0.1331567814638518   0.0517231967360234   0.0000000000000000
  0.1293276562313525   0.0512528455259629   0.0000000000000000
  0.1255804504092525   0.0507745502773552   0.0000000000000000
  0.1219131281255899   0.0502885988465475   0.0000000000000000
  0.1183237015509818   0.0497952534010120   0.0000000000000000
  0.1148102318092792   0.0492947513229479   0.0000000000000000
  0.1113720175725520   0.0487874812015910   0.0000000000000000
  0.1080070759532941   0.0482736140267307   0.0000000000000000
  0.1047146335147149   0.0477534816268928   0.0000000000000000
  0.1014927513745349   0.0472272179600503   0.0000000000000000
  0.0983395479756496   0.0466949369878610   0.0000000000000000
  0.0952554508934213   0.0461571322873805   0.0000000000000000
  0.0922363866432952   0.0456135046927440   0.0000000000000000
  0.0892828700951544   0.0450645654218522   0.0000000000000000
  0.0863942718297865   0.0445106297655928   0.0000000000000000
  0.0835678320075330   0.0439515803137779   0.0000000000000000
  0.0808019575920066   0.0433874837688950   0.0000000000000000
  0.0780971710598979   0.0428188278852694   0.0000000000000000
[...]
POINT_DATA 6176
SCALARS continuity float
LOOKUP_TABLE default
0.0024310737457489085
-0.00026372200566481604
0.00014626276998318353
0.000712810641441455
0.0009133242411134215
0.0010910969344107475
0.0012447836213795255
0.001374524037929167
0.001530243501232389
0.0017090315205228934
0.0018161313978040496
0.001968434889050698
0.002127563733053416
0.0022636075464147923
0.002369232282218494
0.0025164222417563423
0.002607369689103958
0.002693161770222989
0.002699277037868039
0.0027415675545472266
0.002802055193999076
0.0028318412136842785
0.002831565237371762
0.002839800594241332
0.002824906037361139
0.0027868406928111653
0.002736493524847672
0.0027257475556962917
0.002723700836991789
0.0027287089127499583
0.0027182624816209982
0.0026997470548222654
0.0026888955883833075
0.002713480360230464
0.0027604554989080843
0.002789447395522548
0.0028191099179147162
0.00287147347571615
0.0029775195860070594
0.0031032335600302205
0.003225931687399594
0.00334370692119254
0.0034668798798951793
0.0035904716449117074
0.0037158493984165947
0.003849192857561411
0.003991351503773636
0.004131077279159075
0.0042516590662396965
0.0043505906131338845
0.004450534438200529
0.004570206762881636
0.004704015269136204
0.004831469090849545
0.004937351929748565
0.0050080936259629324
0.005033637002914616
0.00501608019156446
0.004980255231968207
0.004953744217153953
0.004952259523700208
0.004970008120767068
0.00497988681106021
0.004954683412554022
0.004886290609921771
0.004792146372081777
0.0046873549439256715
0.004573306724842371
0.004443115956263983
0.004302218546175518
0.004172700372079352
0.004055716612401788
0.003917402302734045
0.0037077834448423224
0.0034142050487139244
0.003082091062056373
0.0027673136376185387
0.002493654193550767
0.002256888175889049
0.002033133232749238
0.0017827873380483422
0.0014824718533853652
0.001146643993632053
0.0008012532510565861
0.00041058442935123363
-0.00014502499218078095
-0.0007205780879548778
-0.0011685915030073678
-0.0015877856387996037
-0.0019701006378786373
-0.002282092210799549
-0.0025285625641556764
-0.0027387093766795666
-0.002931250932435638
-0.003096303869787756
-0.0032162836727769764
-0.0032874369363823557
-0.0033231258413220785
-0.003330754543083325
-0.0033013767812151056
-0.0032292113654196113
-0.0031230735945670003
-0.00300123634199094
-0.002872225249367779
-0.0027309450034695352
-0.0025833122965885974
-0.0024495036613907846
-0.0023545752490902734
-0.002288803303651037
-0.0022323946617288995
-0.0021778937382557068
-0.00213506269684187
-0.002112211507342814
-0.0021085379253723393
-0.0021150713016658738
-0.0021431690036915725
-0.0022181820215823648
-0.0023256494188059456
-0.0024106612264558898
-0.00244841254491658
-0.002448450578803504
-0.002443153694714454
-0.002451836126009075
-0.0024732061617041678
-0.002503708067531693
-0.0025724768751964186
-0.0027001763879088143
-0.0028213602842886622
-0.0028389712511221834
-0.002778774768326363
-0.002698781035603662
-0.0026537198012230455
-0.0026250186298661282
-0.0026224988782796665
-0.002727852142776358
-0.002918969516617324
-0.0028876092194928087
-0.002709588484135509
-0.002640272923506671
-0.0025986272303193236
-0.0025605376037613472
-0.0025210728670601286
-0.0024620553591815737
-0.0024880810699745497
-0.0027136392387936237
-0.002856859353128864
-0.002698025841155791
-0.002486252796858336
-0.0023708196219546997
-0.002302561900453645
-0.0022425340854594464
-0.0022817057854714476
-0.002403793250220896
-0.0028606205099588685
-0.002620424621977951
-0.0025804019432011057
-0.0024969904627097353
-0.0023596710737454145
-0.0023026163199958423
-0.002308574516845394
-0.0022399719351369157
-0.0021432045995149747
-0.002717830121680629
-0.002377517507915056
-0.002294774488181036
-0.0023178914629716114
-0.0024147566340343442
-0.0024091346367289736
-0.0026008335527649444
-0.0026147116464197012
-0.0025388613535074897
-0.0027960362283352682
-0.0030036514949155126
-0.003136102177547588
-0.0033564706474069634
-0.003508071748635611
-0.003661444340884399
-0.004679732923365506
-0.003909657692605643
-0.005081072235636605
-0.0043552627887196525
-0.00568476660506091
-0.0047980230982474755
-0.006399539980558247
-0.0055510241303056256
-0.0072830763661372085
-0.00646321055722605
-0.008370601011813406
-0.007538252412500213
-0.009867493098923676
-0.008440633957509271
-0.009452138285031072
-0.009933101265296467
-0.010460425365029368
-0.011072576759681523
-0.01181872542558543
-0.01254008733741608
-0.013130870855297
-0.013810569522420291
-0.014415775589317292
-0.015015997717347193
-0.015306425663118944
-0.015474454107429095
-0.015369827031955097
-0.01654867172082088
-0.01434564181871046
-0.014026067792754003
-0.012909258100499242
-0.01141289447203276
-0.00910488183452098
-0.006246167168442526
-0.003313733462342396
1.8932607212622293e-05
0.0027556517629296383
0.0055137229819809145
0.007899500569676395
0.009298553159055973
0.013732698323858601
0.012687234360028998
0.014004069290554765
0.014429136878567223
0.014506408202878997
0.014568377545973408
0.014562973136775908
0.01425306634438377
0.014032892416482617
0.013466772304778402
0.012565924778876207
0.012193581055203843
0.010846529083810128
0.01091947474810909
0.009763945273940984
0.009455609791914232
0.008025827540887247
0.008185843560718414
0.0068445398888098835
0.0070222921951452405
0.005680225606405298
0.005945558934945132
0.004600006424098989
0.004966888506363821
0.003646298505577259
0.004116261212803666
0.0027826511823703824
0.0033833909403834343
0.0020272665536949586
0.0027687362856994545
0.0013778690701426641
0.0019631967201624175
0.0017079977055855845
0.0016868930429311268
0.0012223984280776501
0.0015938812567362134
0.0011833979493491083
0.0011274303659210584
0.0010436201440529053
0.0009830048321365717
0.000886597372281814
0.000769748700585601
0.0006140787074697499
-0.00027029580618424207
0.00045095969774614934
0.0003429857399851818
0.00027307669146477067
0.00028055796799049214
0.00015037700301821717
0.0001943140302605057
-4.337561117500248e-05
8.788017151178693e-05
0.00022535279079721472
-0.0004392980816235399
0.00023463952340340246
0.0002804265506580878
0.0002762836862001412
0.0002770690832066232
0.00012646157783359897
-8.476207694922824e-05
-4.7691408678868797e-05
8.991390906441942e-05
0.0002359694653431473
0.00027701502275507975
0.0003075484073619136
0.0003127805770036928
0.0003073871850373994
0.00029252248077538367
0.0002551738348991019
0.000176822796389688
6.55920700845502e-05
2.2258916402389332e-05
2.6213740888701858e-06
4.617002978055859e-05
7.866074631575798e-05
6.536239150981127e-05
1.8532698889525684e-05
-6.803107351719988e-05
-0.00020608667136599103
-0.00035860369940384596
-0.0004676659255221137
-0.0005058442995163273
-0.0005191058639185328
-0.0005523015906591284
-0.0006060262892289818
-0.0006802036340243983
-0.0007865615342785746
-0.0009278851418191474
-0.001076098027027773
-0.0012104315942076667
-0.0013401499658342963
-0.001496379747350377
-0.0016924939021640078
-0.0019263878352370684
-0.002194559919334695
-0.002488314531483129
-0.00279609960685214
-0.0030951543946950793
-0.003358796647463587
-0.0035612955596377063
-0.003693354550760752
-0.0037514223435829836
-0.003736225039166721
-0.0036409814775809246
-0.003464296634768224
-0.003204596584841473
-0.0028712240389805973
-0.002476300530887419
-0.0020369455762010652
-0.0015618338922308097
-0.0010623279892836642
-0.000549037727593283
-3.4283794467486695e-05
0.0004749321527757756
0.000968274152103433
0.0014370451544753109
0.001874116523842429
0.002260359018260326
0.0025676173573585793
0.002765353601323075
0.0028423999318324673
0.003019747447773587
0.003171125609456809
0.003093044013442134
0.0029763170008626923
0.002829877199985817
0.0026680336925341873
0.00251052835798322
0.002349184360599731
0.0021589538713053685
0.0019249018481884814
0.0016477800233113049
0.0013562470075667414
0.0010835673713591935
0.0008571665131470404
0.0006756795197407443
0.000519983097832476
0.00037425623515039926
0.00023275191358784525
9.402762384910683e-05
-3.91927262969302e-05
-0.0001549270759102135
-0.00024671496761738345
-0.00032698280177850407
-0.00040790001285570494
-0.0004920922244194796
-0.0005752737249810666
-0.0006531724185076106
-0.0007277975334489633
-0.000783302314634388
-0.0008086130245660359
-0.0008251369072576103
-0.0008534985907926927
-0.0008676295937103355
-0.0008305509545523862
-0.0007574451533688251
-0.0006783665462192477
-0.0005945896728399981
-0.0004934653229218676
-0.00036145211006767205
-0.00021779176081773092
-0.00011016276338478807
-4.1102105517068255e-05
5.771247461684491e-05
0.0001989778603961348
0.00033244406289494803
0.0004317577295687722
0.0005149977434075789
0.0006060521336855047
0.0007062821940355722
0.0007662299585828308
0.0007427579429648272
0.0007088594033951628
0.0007043635917628622
0.0007631136322953059
0.0008102394492018665
0.0008154122858596643
0.0008035877405686208
0.0007391067361036426
0.0006210720507214113
0.00041124947803866543
0.0003720357396208088
0.0003347085331656027
0.0002386077122173906
0.00012122258565651599
1.901888638720112e-05
-4.0246602677909566e-05
-9.151998374202038e-05
-0.0002251802570962336
-0.00041630715591374723
-0.0004717796220019639
-0.0005197215871417419
-0.0004422533307670017
-0.0003577076555029457
-0.0002680215172749719
-0.00015186232805160707
-4.783518207701116e-05
-1.7338854762821208e-05
0.00014323191787888717
0.00027956658593198454
0.00043924442900162034
0.0007069402666154875
0.0008776602414719159
0.0009417824227721046
0.001167436012507767
0.001752826007235087
-0.0009062496763854557
0.0014208294416082768
0.0023351433096510596
0.00062567422720201
-0.0018470469512060458
-0.0018858324043791632
-0.001639234414133954
0.00010913381871249405
-0.0023058577386649045
0.00027435442035976206
-0.012579984530934908
0.0006785283052149915
0.0006303087713744579
0.0008908773719955727
-0.01260145340338601
0.001056623473773557
-0.002122331518388684
0.0011346882344558482
-0.012590542150286963
0.0012812031974080733
-0.005780090994264478
0.0014280449437135345
-0.012492357537481355
0.001592907358020692
-0.001991495943144914
0.0017853494529447877
-0.012040143433164884
0.001930178268124843
-0.0008320651337272876
0.0020687872144786656
-0.011897741901831974
0.0022069998713780017
-0.001973881131600628
0.0023037599629566084
-0.011119514718125625
0.002405597889978767
-0.005105859445424158
0.002507727588693851
-0.010935659356159548
0.0025793405941408774
-0.0019496265842259704
0.0026635758428204597
-0.009996200229680103
0.0026903476552951754
0.0009553969852050579
0.002722317779014059
-0.00981602605895904
0.0027510696827769392
-0.0018915249790457723
0.002763089122847831
-0.008864583422427586
0.0027318514901970505
-0.004412999404872909
0.0026984021134094987
-0.008567093884450821
0.002656089577888648
-0.0017913267992298123
0.0026226926865893434
-0.007959072072121756
0.0026130051305212707
-0.0008159568026112301
0.0026133423501354435
-0.007861549283829162
0.002610072162958782
-0.0017461166713806306
0.0025946726826523558
-0.0069718771376619144
0.002576719058619883
-0.003411489573370454
0.002569938385614725
-0.006701747132525644
0.0025935037332372223
-0.0017411340308363707
0.0026233757720877
-0.005803447385140052
0.002651394552674873
0.0009893885791325135
0.0026802112627269024
-0.005768999370246609
0.002747445827298924
-0.0017439280905999007
0.0028655517249364494
-0.004871308171858589
0.0029874195576203863
-0.002636108978083496
0.003107232488690154
-0.00485185456753295
0.003226634419043407
-0.0017201651507359355
0.0033422604034987597
-0.004022238659268722
0.003460814830285222
-0.0007258299394290092
0.003588997723968829
-0.0041634089278004245
0.003735272315010146
-0.0017214561346681446
0.0038912920240978754
-0.0033685987465968343
0.004029266451599019
-0.0018250106788135294
0.004140946427407142
-0.00356662313680838
0.004237377833035341
-0.0018247973391341855
0.004338794494936629
-0.0029582030823020475
0.004457607548366911
0.000822094124133079
0.0045891402661037035
-0.0034360937807534713
0.004720694076565762
-0.0018752658143309892
0.004832240246298612
-0.002567587669919555
0.004900909241872981
-0.001732203037440713
0.004914783398905332
-0.0030824211555473637
0.0048888953054338265
-0.0018130447909325339
0.004847571655268218
-0.00234535478628446
0.004818773107273569
-0.0006069507267680779
0.004817743688021883
-0.002393619773547155
0.004837813926446575
-0.0017358650158648728
0.0048458217246944955
-0.0018902039180109845
0.004812130589237287
-0.0011814899861115362
0.004735680399139051
-0.0019414105110490726
0.004636712519304106
-0.0016440727439354546
0.004530855911659048
-0.0016031587980252099
0.004411499830217136
-0.00018642671264155645
0.004274336390878442
-0.001751971823035483
0.004128601130042696
-0.0016540035283334742
0.004001427694817451
-0.0012063744349116471
0.003885585112315574
-0.0009113814136138957
0.0037394662026518605
-0.001350595646930419
0.003512960504974852
-0.0016451082153943243
0.003204973409655465
-0.0009865905359620177
0.0028710874833753524
-0.0004082014707722456
0.0025609693746704416
-0.0016013911110675804
0.002292006799540797
-0.0016349899031983558
0.0020577012664620056
-0.0010646599624855454
0.0018295843207547645
-0.0004197519627776534
0.0015662085448477012
-0.0014535665795568967
0.001252312714493137
-0.001659189041289661
0.0009103752132426531
-0.0009514056800933601
0.0005617161506747677
0.000511102311688747
0.00015441895455756081
-0.0008794420966199723
-0.00044476018158693276
-0.0017656077165431302
-0.0009051627759287715
-0.0009623037054182227
-0.0013424614162800244
-8.735883003082117e-05
-0.0017607114992126741
-0.0009681114542961078
-0.002154579445864156
-0.001714290977523387
-0.002483618731329614
-0.001052318145875297
-0.002746699119120592
-0.0002322318439121003
-0.0029615227467141296
-0.0010814352125527915
-0.0031543350368403804
-0.0016441109730078133
-0.00332243149515353
-0.0012630072405670817
-0.00344986083147929
-0.0001192454289876834
-0.0035266641961640074
-0.0013277113485203823
-0.0035607172376522127
-0.0015114487859738672
-0.0035680162650070448
-0.0016820974971880464
-0.003546106125658214
0.0011512629429902119
-0.0034874683900685904
-0.0015689896022266423
-0.0033914667818116763
-0.0014479814245494833
-0.0032708732733717255
-0.001475017948487098
-0.003139996788259111
0.0004763090876591474
-0.0030002205473148814
-0.0015139891789517567
-0.0028523810198048697
-0.0013522791273125505
-0.0027112698308064363
-0.0015389716309029652
-0.0026003464875310727
0.011021846798017994
-0.0025274805279617884
-0.0014113487331875933
-0.0024779775435237036
-0.0013176904073529557
-0.0024286520528144766
-0.001352427736941859
-0.002382569414905248
0.00020093389960446512
-0.00235045751788377
-0.0014585994077508293
-0.0023427331018167773
-0.0013999878237064883
-0.00235041310764124
-0.0015915270072946216
-0.002373793001354657
0.0028384884081260383
-0.0024208165441457017
-0.001769962477751432
-0.0025014536192647253
-0.0015607867579327348
-0.0025950782893209854
-0.0018485590501282766
-0.002644911091361327
0.0005301378456785033
-0.002643391367705201
-0.0018828323845820165
-0.002622817490317684
-0.0013952955935429413
-0.0026214352567653244
-0.0019284027300112045
-0.002637252887168672
-0.00013082428494230112
-0.0026668107746520018
-0.0018258364936909208
-0.0027045612557282345
-0.0012133655237625584
-0.002774101852802469
-0.001766599862458429
-0.0028853579416591225
0.0006302639269755325
-0.002907809949630015
-0.0018246311417291605
-0.00285561371950265
-0.0012761701578750124
-0.0027586310820036162
-0.0019011769757493772
-0.0026868682514998576
0.0005944045670743794
-0.0026486840117168086
-0.00196774073237858
-0.002626183138176408
-0.0011729758993441783
-0.0026483257541850217
-0.002037305128133125
-0.0027798125115269796
0.00036299226934671683
-0.0028529830967896474
-0.002186938559744687
-0.002671250840296309
-0.001090747365524871
-0.0025149975121774595
-0.002357648335837628
-0.0024625912543176608
-3.372366891693084e-05
-0.0023991835644026935
-0.0023215349035565756
-0.0023368219798717404
-0.0009870577360892839
-0.002269986449099798
-0.00221828379907673
-0.002272692706900324
0.0004787605072466411
-0.0023311499948103958
-0.002193276713020135
-0.002476348759379154
-0.0009456416627070355
-0.0024399075316991078
-0.0022211609070028416
-0.0022421846064783406
0.00056124867858042
-0.0020144767375200353
-0.0022711121014852196
-0.0019313905030587085
-0.0010692481513764195
-0.0018411588330209659
-0.00241002935785952
-0.001838447375425165
0.0004656494462425507
-0.0019588460500052597
-0.002506325063427449
-0.0020733170888618657
-0.0010908319772927294
-0.0020910136988597002
-0.00261371935538378
-0.0021526863788320894
0.00010416067174002803
-0.0021309097585821726
-0.0025782264551611326
-0.0018848674151209124
-0.0008075245848272787
-0.0016845768168073235
-0.002482938398778197
-0.0015868942611877537
-0.006954912151727064
-0.0014831938298623558
-0.0024581335479754575
-0.001434770982814128
-0.0009102538255862846
-0.0014859715472861378
-0.002453179834059369
-0.0014462567746385206
0.0004801923670654084
-0.0014390501579876166
-0.0024378162208008943
-0.0016309756234516664
-0.0011139828213749153
-0.0015828806562918694
-0.0024298200595155514
-0.0017222974335093
0.0002676329293010752
-0.0017372542175979396
-0.0024538392856902538
-0.0016829161974573812
-0.0008128644374738418
-0.001656090782188533
-0.002518577378131876
-0.001724631277401305
0.0001666854776278007
-0.001853027598945336
-0.002530777310753291
-0.0019691309926099885
-0.0008201341926098987
-0.0021211743086323874
-0.002484311084038579
-0.0022979256604697866
0.002904816221701266
-0.0025391927878395462
-0.0023813123097247337
-0.0028890379966794383
-0.0006178074427390794
-0.0029462149690052
-0.0023411126763961377
-0.003255615258576779
0.0009740951110368887
-0.0032207218842789757
-0.002329898966108575
-0.0034999525136966414
-0.0007943078913875426
-0.0036341763539966643
-0.0023172604641410093
-0.004069901081709045
5.5727002524590776e-05
-0.004310309682787136
-0.0023160384528308642
-0.004803564916352054
-0.0008769425675243849
-0.00516963519228356
-0.002340115774420978
-0.005770460081688117
5.050978804023692e-05
-0.0061045578692074725
-0.0023936649331128728
-0.006660141615762949
-0.000595478724831177
-0.0070097446056797
-0.0024403875184550237
-0.007708965639373592
0.010659021012168837
-0.008054258598531996
-0.0024707925767393658
-0.00867824397598055
-0.0005731977685282671
-0.009069456857582543
-0.0025098923073367065
-0.009903702894984922
0.0006843444547815539
-0.010390719450888783
-0.0026058542671729473
-0.011130364498223872
-0.0007902438625564384
-0.011625617945673515
-0.0027507546444652327
-0.012328754028145462
0.0005448434777030476
-0.012782543834070386
-0.00291060778659717
-0.013112032004176927
-0.0011767414359427852
-0.01335548978066886
-0.0030706482231515776
-0.01352939112511734
3.579396339039543e-05
-0.0138445757461343
-0.0032252599658804493
-0.012911678124874985
-0.0005711345578694675
-0.012176084802883898
-0.0033723227470067287
-0.011045431238176358
0.0006098822432393425
-0.009587829710105996
-0.003494438721371979
-0.0076121905003615495
-0.000683232965499348
-0.0057460322710329555
-0.0035850358430628113
-0.004134684354340628
-0.0026823324871865246
-0.001545678040274792
-0.003646383489128645
0.000838268127425215
-0.0004469560783796599
0.0031819536210184085
-0.0036918132539546277
0.005298407774311848
0.000195522441921353
0.007322955920545072
-0.0037178043260412776
0.009401824462549694
-0.0004918070840271084
0.010582646935324
-0.003709315553449591
0.011218937478104684
6.064558564062257e-05
0.011516428722205992
-0.0036493426507194456
0.011553245554799918
-0.00041062446475254174
0.012343758805221556
-0.0035333711400601787
0.011997859843037632
0.00013947756252100308
0.012589615703840148
-0.003375260323639573
0.012169076254692412
-0.0003847439942699965
0.011919254622583957
-0.0031869573655768204
0.011601613072464245
0.0007723144522727762
0.010936245877286331
-0.0029739026320127486
0.010254061423819062
-0.00031792425774650873
0.009927388103200494
-0.002717389215852763
0.009397672647896885
0.00033818014798689785
0.00869757032373956
-0.002403090641024054
0.008329253206303825
0.0018656677601160481
0.007761262998520248
-0.0020365777999487014
0.007292916431258039