# vtk DataFile Version 1.0
GRUMMP topologically 2D mesh
ASCII

DATASET UNSTRUCTURED_GRID
POINTS 6176 float
  1.0000000000000000   0.0000000000000000   0.0000000000000000
  0.9979736161243241   0.0002872981906159   0.0000000000000000
  0.9959038003591104   0.0005818082753016   0.0000000000000000
  0.9937894604158818   0.0008826109490225   0.0000000000000000
  0.9916311447855282   0.0011889740049165   0.0000000000000000
  0.9894256878168368   0.0015011074645448   0.0000000000000000
  0.9871732566523234   0.0018189104108560   0.0000000000000000
  0.9848739492731372   0.0021423104928037   0.0000000000000000
  0.9825241245750710   0.0024717658271048   0.0000000000000000
  0.9801244133260449   0.0028071825305054   0.0000000000000000
  0.9776732769852096   0.0031487906039340   0.0000000000000000
  0.9751690039483889   0.0034968357351786   0.0000000000000000
  0.9726117072730877   0.0038512643819321   0.0000000000000000
  0.9700001180350898   0.0042121148976419   0.0000000000000000
  0.9673332227148538   0.0045793859121594   0.0000000000000000
  0.9646079236541195   0.0049533708962095   0.0000000000000000
  0.9618249648196705   0.0053338679490647   0.0000000000000000
  0.9589807878895711   0.0057213439443832   0.0000000000000000
  0.9560767311296049   0.0061156062701256   0.0000000000000000
  0.9531120216710255   0.0065167463399167   0.0000000000000000
  0.9500819018783057   0.0069253778138591   0.0000000000000000
  0.9469876484068450   0.0073412143029309   0.0000000000000000
  0.9438286210030068   0.0077641908681895   0.0000000000000000
  0.9406001269296587   0.0081947829660712   0.0000000000000000
  0.9373041277084813   0.0086325757434285   0.0000000000000000
  0.9339368121646437   0.0090779560824189   0.0000000000000000
  0.9304976431076690   0.0095309377793780   0.0000000000000000
  0.9269838874379289   0.0099918267186165   0.0000000000000000
  0.9233965242394278   0.0104604374002928   0.0000000000000000
  0.9197323684717913   0.0109371203977286   0.0000000000000000
  0.9159901296799260   0.0114219111797446   0.0000000000000000
  0.9121662515702946   0.0119150917142392   0.0000000000000000
  0.9082612640703632   0.0124164093968364   0.0000000000000000
  0.9042711890176098   0.0129261849544228   0.0000000000000000
  0.9001985925103467   0.0134439182275261   0.0000000000000000
  0.8960367883853674   0.0139703538547480   0.0000000000000000
  0.8917881131106570   0.0145051006126241   0.0000000000000000
  0.8874465968544013   0.0150488093430172   0.0000000000000000
  0.8830132689405343   0.0156012428338051   0.0000000000000000
  0.8784843643309772   0.0161627200549514   0.0000000000000000
  0.8738585592690924   0.0167332093564690   0.0000000000000000
  0.8691331845657406   0.0173128340473851   0.0000000000000000
  0.8643080629784704   0.0179014022230632   0.0000000000000000
  0.8593790220315882   0.0184992057974382   0.0000000000000000
  0.8543443022105112   0.0191062525475961   0.0000000000000000
  0.8492020742372332   0.0197225542022908   0.0000000000000000
  0.8439504592998461   0.0203481184762133   0.0000000000000000
  0.8385847225217766   0.0209832807547837   0.0000000000000000
  0.8331043690503205   0.0216278714070098   0.0000000000000000
  0.8275075883744546   0.0222818740978654   0.0000000000000000
  0.8217896079901662   0.0229456038551552   0.0000000000000000
  0.8159499389768221   0.0236188617887649   0.0000000000000000
  0.8099850870934132   0.0243017702717010   0.0000000000000000
  0.8038929332928342   0.0249942623102002   0.0000000000000000
  0.7976697970229181   0.0256964297179088   0.0000000000000000
  0.7913134730328051   0.0264081777898121   0.0000000000000000
  0.7848218596203610   0.0271293903098903   0.0000000000000000
  0.7781898173908960   0.0278602762976724   0.0000000000000000
  0.7714169256365310   0.0286005013921829   0.0000000000000000
  0.7644979701754163   0.0293502351726533   0.0000000000000000
  0.7574308659438134   0.0301093068082177   0.0000000000000000
  0.7502135053150701   0.0308775557618342   0.0000000000000000
  0.7428404612557281   0.0316551512399728   0.0000000000000000
  0.7353096164115749   0.0324418730798164   0.0000000000000000
  0.7276172963491144   0.0332375368705936   0.0000000000000000
  0.7197598859172740   0.0340418579688506   0.0000000000000000
  0.7117355290536627   0.0348543282856948   0.0000000000000000
  0.7035389878799579   0.0356747811793425   0.0000000000000000
  0.6951650952820780   0.0365031090698871   0.0000000000000000
  0.6866122709923126   0.0373388258653197   0.0000000000000000
  0.6778754950330185   0.0381817369178559   0.0000000000000000
  0.6689534383202176   0.0390312029136988   0.0000000000000000
  0.6598376964403885   0.0398871771799410   0.0000000000000000
  0.6505290121117546   0.0407486821288951   0.0000000000000000
  0.6410191910005383   0.0416153892989160   0.0000000000000000
  0.6313056496470314   0.0424862165552765   0.0000000000000000
  0.6213823079172336   0.0433602824420315   0.0000000000000000
  0.6112489281649386   0.0442362457646169   0.0000000000000000
  0.6008963123926909   0.0451137308907019   0.0000000000000000
  0.5903211292528141   0.0459917803130241   0.0000000000000000
  0.5795184839365645   0.0468692540951747   0.0000000000000000
  0.5684857150099230   0.0477443424041717   0.0000000000000000
  0.5572148862675538   0.0486154402631608   0.0000000000000000
  0.5457024491672809   0.0494805599680832   0.0000000000000000
  0.5339780836677636   0.0503353194116202   0.0000000000000000
  0.5219860728183490   0.0511813660693644   0.0000000000000000
  0.5101253307512127   0.0519891081313360   0.0000000000000000
  0.4985043971600128   0.0527514649709832   0.0000000000000000
  0.4871181100865982   0.0534694955937708   0.0000000000000000
  0.4759663238182478   0.0541439373921026   0.0000000000000000
  0.4650424897306392   0.0547759224024376   0.0000000000000000
  0.4543414694194311   0.0553665338532900   0.0000000000000000
  0.4438615277983380   0.0559167464857066   0.0000000000000000
  0.4335966445555638   0.0564277439227250   0.0000000000000000
  0.4235422171719039   0.0569005367499369   0.0000000000000000
  0.4136931783754329   0.0573360485787389   0.0000000000000000
  0.4040479201781875   0.0577350333573017   0.0000000000000000
  0.3946007843384192   0.0580984587592611   0.0000000000000000
  0.3853459130056055   0.0584273588583778   0.0000000000000000
  0.3762828394437238   0.0587225582688298   0.0000000000000000
  0.3674052759622001   0.0589850521268143   0.0000000000000000
  0.3587104110044708   0.0592156767487264   0.0000000000000000
  0.3501952433465900   0.0594152538281565   0.0000000000000000
  0.3418548081050912   0.0595846279097528   0.0000000000000000
  0.3336858663230149   0.0597246577421592   0.0000000000000000
  0.3256868701986138   0.0598362486465025   0.0000000000000000
  0.3178507769372301   0.0599203474438374   0.0000000000000000
  0.3101776523444911   0.0599777679649948   0.0000000000000000
  0.3026620994593082   0.0600092896252224   0.0000000000000000
  0.2953022098091474   0.0600156089816429   0.0000000000000000
  0.2880942515540157   0.0599974067416477   0.0000000000000000
  0.2810344582773878   0.0599553507162620   0.0000000000000000
  0.2741224198462300   0.0598902308958287   0.0000000000000000
  0.2673508102792782   0.0598027829062179   0.0000000000000000
  0.2607208372897423   0.0596938009430880   0.0000000000000000
  0.2542268737219818   0.0595639532054747   0.0000000000000000
  0.2478699323930078   0.0594139942796022   0.0000000000000000
  0.2416426526986943   0.0592444560641495   0.0000000000000000
  0.2355443386744786   0.0590559928562533   0.0000000000000000
  0.2295742285057687   0.0588492600763349   0.0000000000000000
  0.2237267309732288   0.0586247739586633   0.0000000000000000
  0.2180011540540604   0.0583832555000465   0.0000000000000000
  0.2123936096745636   0.0581252700988444   0.0000000000000000
  0.2069018249031851   0.0578514118247249   0.0000000000000000
  0.2015265925874962   0.0575624139311738   0.0000000000000000
  0.1962639217171782   0.0572587327640815   0.0000000000000000
  0.1911098627978642   0.0569407701058159   0.0000000000000000
  0.1860635373512509   0.0566090833477142   0.0000000000000000
  0.1811225555455632   0.0562641183158228   0.0000000000000000
  0.1762831066659017   0.0559062017034564   0.0000000000000000
  0.1715472965099615   0.0555361405439852   0.0000000000000000
  0.1669099315072494   0.0551541804881659   0.0000000000000000
  0.1623702175183220   0.0547608759938091   0.0000000000000000
  0.1579259317985442   0.0543566416724963   0.0000000000000000
  0.1535748664842349   0.0539418626674859   0.0000000000000000
  0.1493147619729656   0.0535168899310313   0.0000000000000000
  0.1451447283274916   0.0530821904592715   0.0000000000000000
  0.1410625235604109   0.0526380756497570   0.0000000000000000
  0.1370659530359299   0.0521848322503466   0.0000000000000000
  0.1331567814638518   0.0517231967360234   0.0000000000000000
  0.1293276562313525   0.0512528455259629   0.0000000000000000
  0.1255804504092525   0.0507745502773552   0.0000000000000000
  0.1219131281255899   0.0502885988465475   0.0000000000000000
  0.1183237015509818   0.0497952534010120   0.0000000000000000
  0.1148102318092792   0.0492947513229479   0.0000000000000000
  0.1113720175725520   0.0487874812015910   0.0000000000000000
  0.1080070759532941   0.0482736140267307   0.0000000000000000
  0.1047146335147149   0.0477534816268928   0.0000000000000000
  0.1014927513745349   0.0472272179600503   0.0000000000000000
  0.0983395479756496   0.0466949369878610   0.0000000000000000
  0.0952554508934213   0.0461571322873805   0.0000000000000000
  0.0922363866432952   0.0456135046927440   0.0000000000000000
  0.0892828700951544   0.0450645654218522   0.0000000000000000
  0.0863942718297865   0.0445106297655928   0.0000000000000000
  0.0835678320075330   0.0439515803137779   0.0000000000000000
  0.0808019575920066   0.0433874837688950   0.0000000000000000
  0.0780971710598979   0.0428188278852694   0.0000000000000000
[...]
POINT_DATA 6176
SCALARS continuity float
LOOKUP_TABLE default
0.003611426417088092
0.0018364873192274504
0.0017904463473908349
0.0017549692370383127
0.0017264506114974673
0.0016968421904215633
0.0016771417501942022
0.0016449639341153382
0.001616513465777977
0.0015904504245713292
0.0015666809411934222
0.0015436901699200092
0.0015224768520267086
0.001498683796962057
0.0014762715865368535
0.0014487289446982895
0.0014149957410790415
0.0013847160404533508
0.0013584326572617937
0.0013343853427315194
0.0013103356280797583
0.0012848401798291548
0.0012587605499542092
0.0012322714253565294
0.001202543363963075
0.0011695355767519238
0.0011356955073013797
0.0011019378689422637
0.0010689874066795542
0.0010363060025935474
0.0010028848054609487
0.0009684931216295237
0.0009331547779991615
0.0008970166177801156
0.0008592113296030998
0.0008183603177339641
0.0007759471290041614
0.0007323221336034185
0.0006905609336171365
0.0006501488729753748
0.0006088376169607817
0.0005664706684401686
0.0005228031517256705
0.00047627035827285707
0.0004276871476489741
0.00037880087919248747
0.00033153693433325866
0.00028634539468568395
0.00024076480528052927
0.00019286257593001922
0.00014242878779007642
8.900697617441198e-05
3.308688952922535e-05
-2.352245719618198e-05
-7.891907697623925e-05
-0.00013215863416691088
-0.0001852861091564577
-0.00024108828540428455
-0.0003002235312610405
-0.0003628663094561506
-0.000428674554692595
-0.0004957322379891667
-0.0005618955491795067
-0.0006271930758813715
-0.0006937644098180659
-0.0007631746090397944
-0.0008352304233387981
-0.0009092921867857675
-0.0009859580941358268
-0.0010666754188738406
-0.0011519427789021131
-0.0012399554013254876
-0.0013284258633782535
-0.0014172678025766946
-0.0015088614836433754
-0.0016055452626327436
-0.0017078526607632821
-0.0018151670469733518
-0.001926741747163619
-0.002041426604284842
-0.002158451038807899
-0.0022788282500302384
-0.002404492159363907
-0.0025354740985238677
-0.0026691644819387315
-0.002824529083961468
-0.003005351751967412
-0.0031673547788028476
-0.003319590809499139
-0.003467032831404798
-0.003614750353701966
-0.003764674923111904
-0.00391596423203756
-0.004067029804835522
-0.004216952678927919
-0.004365209546681343
-0.004510863486067025
-0.004652653826857306
-0.004790076197551012
-0.004924709398204868
-0.005058617913717302
-0.005192241080579087
-0.005323612316512605
-0.005450590604061261
-0.005572068660231982
-0.005687361569864328
-0.005795560632844356
-0.005895939503661848
-0.005989409844324262
-0.0060781737880553684
-0.006163975797793863
-0.006245965986828223
-0.006321408509406234
-0.006388815462421891
-0.006448231664552219
-0.006499958746815378
-0.00654395601307105
-0.006580221161774822
-0.006610045056174886
-0.006636801246964429
-0.006663305899706591
-0.006687105897799577
-0.006704537417959557
-0.0067143269799646
-0.006718353217859443
-0.00671844522281343
-0.006713981799707731
-0.006701111930888031
-0.0066800578016701275
-0.006658771602629732
-0.006640364572260334
-0.006621487115105901
-0.006595423761767597
-0.006564377780419943
-0.006532308817941977
-0.006492470698594721
-0.006430071180031466
-0.006372446023039915
-0.006330502121037749
-0.006281099518422623
-0.006222446022145621
-0.006159098516422098
-0.006094185108089458
-0.0060332273963970215
-0.0059750630908412495
-0.005887483024546605
-0.005785271649111865
-0.005693440193075357
-0.0056186584027851415
-0.005537511023896629
-0.0054466643633569855
-0.005356214657877524
-0.005269631579583493
-0.005151613664104852
-0.0050745837682302855
-0.00494405070886492
-0.004813586571134981
-0.004657040865877251
-0.004545134906666161
-0.004423899722258463
-0.0042850285830063495
-0.004154606277857168
-0.004013470959005573
-0.0039013928204844677
-0.0037157540689640996
-0.0035532706402700938
-0.003385195001460103
-0.003223536631084856
-0.003039460199615814
-0.002843607975775957
-0.0025996248086141236
-0.0024043564796945136
-0.0021930361100254234
-0.0019872170779884945
-0.0017488441932264483
-0.0015283845191144585
-0.0012854414218956142
-0.0010809674778246828
-0.0008180392136562072
-0.0005451379944771152
-0.00026886952408021215
3.697737289784605e-05
0.0003215127493149447
0.00063840695101587
0.0009456080741974198
0.0012869670740240288
0.0016164091331075491
0.001980831135620955
0.0023440600438110583
0.002751171650271431
0.0031229749168517422
0.0035772874819084088
0.0039703661537866634
0.004396659178427581
0.00483502919590228
0.005285887046487476
0.005740902369873367
0.006205661479519967
0.006689809247534871
0.007196344178965627
0.007748206936089167
0.008327777520863859
0.008930307792468369
0.009505843613903464
0.01004140761598909
0.010567942717430698
0.011161780284386821
0.011635175849180765
0.012011439099162111
0.012286695923298103
0.012509065676217675
0.012534665699980406
0.012465208160631737
0.012305409476878857
0.012025682037119767
0.011662252589394356
0.011175031497959294
0.010713155505258934
0.010145930113125966
0.009538617402511305
0.008876633285686096
0.008214725695735892
0.00757903342555342
0.0069775915622381415
0.006428192275151687
0.0059082793970876455
0.005392885949395431
0.004897231508764517
0.004439173236579807
0.003947383489241416
0.0035576069084435344
0.003105003323109082
0.0026602186516206557
0.0022309288348618668
0.0018525016291096783
0.0014701879107211044
0.0011029402072700483
0.0007436965186151353
0.0004014051746681817
6.984305288916366e-05
-0.00025385066858758115
-0.0005552551138568124
-0.00083951133674698
-0.0010952401631095442
-0.001378383898609453
-0.001619717613204268
-0.0018817123643684163
-0.002104513169087546
-0.0023011280996005504
-0.0025121378120539547
-0.0026962263270905217
-0.002918946369473288
-0.003119248214257496
-0.003335685910041068
-0.0035045244496522674
-0.00368277713332999
-0.0038420332907853193
-0.004005553274464412
-0.004158245349533776
-0.004327280947713782
-0.004425024801202597
-0.0045632813437599725
-0.004689736173400537
-0.004816934219324669
-0.0049232401436496275
-0.005022239160441041
-0.005163346340963447
-0.0052760871631789405
-0.005378330392196855
-0.005494816770521184
-0.005564511031304282
-0.005649796929639605
-0.005723408954217892
-0.005800830053873238
-0.00586825845024491
-0.005948941626686868
-0.006038313499022303
-0.006112474755671485
-0.006176405999732085
-0.0062246134618613004
-0.006275108585357112
-0.0063277871796471406
-0.006379040726799725
-0.00642512795678304
-0.006461732580906824
-0.006496673440856679
-0.006544700480542684
-0.006593811632169903
-0.006636533524300501
-0.006660940367424561
-0.006677688705490073
-0.006693894251593508
-0.006706720402753727
-0.006714356859080527
-0.006723297990347814
-0.006736580405645982
-0.006749814917987958
-0.006754253850436394
-0.006749227340165132
-0.006738559661850872
-0.006722729974854933
-0.006700956223153534
-0.006675100925076008
-0.006648706577049251
-0.006622579671786881
-0.006593106721930831
-0.006557210981353846
-0.006514241494676276
-0.006464312328768242
-0.006407603419817373
-0.006343568694295945
-0.006271528731881814
-0.006191935832896638
-0.006106840768833098
-0.006018071815987017
-0.0059251627928637645
-0.005825872410737746
-0.005718356387871722
-0.005601899541615997
-0.00547750738089102
-0.005346840912847564
-0.005211953342155015
-0.005075165580283014
-0.004937656784186554
-0.004798297176040723
-0.0046553063533911485
-0.004508274715705783
-0.004357995208447647
-0.004205332971198127
-0.004050825132461733
-0.0038949359565514535
-0.0037384992511484616
-0.0035827798512283937
-0.0034287549321547384
-0.0032760492298796982
-0.0031226353477784947
-0.002964823312447751
-0.0027990946781021155
-0.002612754580832901
-0.0024495455682365004
-0.0023119675045452236
-0.0021783899993519707
-0.002050515816000728
-0.0019280434214397288
-0.0018090855660066333
-0.0016922738443344934
-0.001578109100266213
-0.0014676716447792422
-0.0013619171215729726
-0.001261541466411712
-0.0011660218141723393
-0.0010724172794484093
-0.0009786984590780489
-0.0008867065871758214
-0.0007987102953014282
-0.0007146772186058081
-0.0006333307313799171
-0.0005545565153339137
-0.00047936774680363545
-0.0004079801838370276
-0.00033818257254764354
-0.00026772207838080724
-0.00019670293299951872
-0.00012682381555248812
-5.9669891888289325e-05
4.219751308749604e-06
6.474826151079811e-05
0.00012244585676062972
0.0001804271850091698
0.00024128191326774028
0.0003032017575202839
0.0003628981265514499
0.00042010768781374413
0.00047586957409333165
0.0005306142805793762
0.0005837178086572036
0.0006345138258118946
0.0006848325245608988
0.0007377601102665028
0.0007926964901402617
0.0008462146864928909
0.0008971516873612783
0.0009462341928589262
0.0009943361792872979
0.0010414211564312983
0.0010870171721329375
0.001131776207503407
0.0011784521607125255
0.0012270514281793427
0.0012742080532708673
0.0013203317710490598
0.001364617634145835
0.0014074473254477213
0.0014486534127226896
0.0014885112724929565
0.0015281052211353718
0.001568167769746481
0.0016066327759929446
0.0016413334889960889
0.0016749100637193496
0.0017054566845862832
0.001733573048583308
0.0017595331279207597
0.001783272480573215
0.001804828760285225
0.0018247133603094818
0.0018466433988494793
0.001872050234381277
0.0018985977349084083
0.0019193123448302005
0.0019339094848896622
0.0019505170105539307
0.001965304124024488
0.001984768551937651
0.002004076594319065
0.0020285432895696767
0.0020560045938537354
0.00208564551568129
0.002101407644335627
0.002126270876158624
0.0021418578282370168
0.0021887738784325313
0.002218040579020077
0.0019071007890788133
0.0021852487636153483
0.002451284970956098
0.002454492875614439
0.0023569728599480157
0.002373549609081104
0.0022643535291723203
0.0018650466018496935
-0.006301782804006199
0.0017507782806932444
0.008467383168832646
0.0017325304307144905
-0.004814071376298827
0.0017030153403785819
0.007744201590444523
0.001680484701218267
-0.0064105568215036615
0.0016624485825758749
0.007220437944825978
0.001638874790806455
0.0026185036697077553
0.0016063532446937727
0.0067463612454709936
0.0015778227004142398
-0.006512223105824124
0.001554027682472808
0.006438810416059539
0.001526344744945064
-0.006078725457332537
0.0015039105347029102
0.00592025798360937
0.0014807019516485263
-0.006607089121335796
0.0014565900165950895
0.00562580403662685
0.0014299369899197373
0.0017735460613184228
0.0014026553688917774
0.005107402563421953
0.0013708605915482678
-0.0066954523887228735
0.0013450591344022695
0.004817187003951671
0.001314135552624304
-0.006967578831117989
0.0012891091584927108
0.004281698888892682
0.0012636784794298676
-0.006782009640448087
0.0012383241595318776
0.003990264287905846
0.0012070965296518842
0.001123314111484916
0.0011746045516998278
0.003482388367337321
0.001140525831502235
-0.006863963709109501
0.0011112631130620878
0.0031834595912174995
0.0010770973464881801
-0.006194022888238459
0.0010444544426481542
0.002673028781191483
0.0010117434737837605
-0.006939539913332518
0.0009782573516110816
0.0024271337880311396
0.0009439398863577555
0.0004506042382346154
0.0009086001681971934
0.0019499775958358456
0.0008728841259897091
-0.007005248838100031
0.000834133661647259
0.0016621391623585558
0.0007931987604618027
-0.0059379133444394504
0.0007497523959179598
0.0012681358259139883
0.0007067053328934664
-0.0070619261452970926
0.0006652655735535271
0.0009711389535155373
0.000624651829343763
-0.00022908696462575626
0.0005831276759811413
0.0005872159746318446
0.0005407583539680301
-0.007111770024569434
0.0004964372612379721
0.0003188803711925956
0.00044940378171678713
-0.0063186633519241725
0.00040098331920814266
-5.565926451930857e-05
0.0003524409143545868
-0.007158137796189988
0.00030610697718262507
-0.0002980414266150789
0.00026089221702985414
-0.000781042957344075
0.00021448566067789975
-0.0006550400845142588
0.00016610563051724415
-0.007194804233942804
0.00011510680025717565
-0.0010264364374194027
6.103051661591992e-05
-0.006852402294758116
4.967453136423099e-06
-0.0011682402879693798
-5.137135076863092e-05
-0.007229438543743545
-0.00010590826980082551
-0.0015513590011403155
-0.00015885245084047348
-0.0013516474685318243
-0.00021275371410077928
-0.0016919646282787984
-0.00026938450545518406
-0.007255887179331972
-0.00032919541072238515
-0.0019143834554769031
-0.00039265435093175407
-0.006427654087000224
-0.0004587630049210612
-0.0022191130970973063
-0.0005254285581717909
-0.007281580945658457
-0.0005910087405757122
-0.0023917860141164666
-0.0006563524429420846
-0.0018847259352234047
-0.0007235675213369343
-0.002660063323186342
-0.0007935872723265252
-0.0073045471309598955
-0.0008659988080938484
-0.002829618893481206
-0.0009405190600569108
-0.0025138313941909067
-0.0010181652777399145
-0.0030824935982496733
-0.00110025629268209
-0.00732545870462695
-0.0011865046005623179
-0.003213184296554095
-0.0012745349324379141
-0.002370751999007626
-0.0013626872310775059
-0.0034466771942087563
-0.0014517356265344966
-0.007337813250025138
-0.0015445001782993652
-0.003615738959393902
-0.0016427143565854866
-0.00653728435900607
-0.0017464171239408837
-0.0037366742200481175
-0.0018550612517601124
-0.007346350575028323
-0.0019677340410611324
-0.003940339835382872
-0.002082971118477249
-0.002828260682885956
-0.002200506881592215
-0.004056015259443128
-0.0023220625761656293
-0.0073531019238063525
-0.0024493503945361645
-0.004268686506053783
-0.0025817149138938258
-0.0068366280298176995
-0.0027161694788213142
-0.004469102647723299
-0.0028634854123287604
-0.007325682340543676
-0.003017169212664314
-0.0045570687580153875
-0.003181509730523634
-0.0033263942828710923
-0.0033352981418086607
-0.00474978046954794
-0.003483738473355911
-0.007340569265742919
-0.003631958546678168
-0.0048516360272847815
-0.003782337147804332
-0.006637127538994541
-0.003934524261571197
-0.004930559897121057
-0.004086938167062255
-0.007326199215930311
-0.004238324786651172
-0.0050368444084028284
-0.004388001752853247
-0.0037994013615034387
-0.0045352646126986945
-0.005207039698416863
-0.004678964813899651
-0.007317997328888898
-0.004818387601283862
-0.00531446209609328
-0.004954526260491545
-0.005939675836270395
-0.005089343878238483
-0.005443871358910487
-0.005223923389878533
-0.00728170516314777
-0.005357055518502158
-0.005582159436208519
-0.0054863355136766205
-0.004076481409686442
-0.005610240496591486
-0.005680728150990651
-0.005727881041153782
-0.0072631938244049265
-0.005838542026136448
-0.005770459065138846
-0.005941602454135868
0.004509422823721649
-0.006037548421382516
-0.005867591624769904
-0.00612828399053149
-0.007246580012454257
-0.0062154078735430955
-0.005929083937319853
-0.0062993830433149605
-0.004431384804148408
-0.006377734619887076
-0.00599856224897095
-0.006448469206535423
-0.0072289186267118985
-0.0065109681493044835
-0.006067811668784362
-0.006565577248708577
-0.002614296254528105
-0.006612344862426281
-0.006182895110623956
-0.006651409543366683
-0.007161762098097863
-0.006684336468333936
-0.006303771002151438
-0.0067133360218572715
-0.004695001484980332
-0.006741514910795566
-0.006364229704297977
-0.006767755016119855
-0.0071666122121122906
-0.006789138280767874
-0.006387969291612158
-0.006803115684850255
-0.0067344960934234465
-0.006810778208343673
-0.006497506008909574
-0.006813598552293296
-0.007146255656239092
-0.006811236621700697
-0.0065491837565205754
-0.006801462587759149
-0.004981056145107327
-0.006783091165717497
-0.006597254402778174
-0.00676602660098852
-0.007039662339480322
-0.006750330748487669
-0.006644733052506163
-0.0067355039554828095
-0.006759937938891933
-0.006714354451940058
-0.006689549193604781
-0.006687470439614353
-0.0069981937402988905
-0.006656297795626807
-0.006726457896660845
-0.006618239769070995
-0.005205681818978606
-0.006564427645880234
-0.006802216006682096
-0.006508821634281549
-0.006961903796617105
-0.006466893377744613
-0.006846623026636175
-0.00642257633339627
-0.006820151230074712
-0.006370550044105373
-0.006858680202692948
-0.006314447916369376
-0.0069196660622184835
-0.006255906481959739
-0.006915106566361759
-0.006197065890256538
-0.005385785602339812
-0.0061184926047291345
-0.006942003489239943
-0.006060521974009866
-0.006886323922357175
-0.005969632586836262
-0.006964992740793886
-0.0058555833457601975
-0.004735916931022683
-0.005777900872383155
-0.006979674779493316
-0.005703704770318162
-0.006853947287827752
-0.005623005061005837
-0.00699379158850467
-0.005541908791010148
-0.005560649331169329
-0.005454485733108582
-0.007009050996497397
-0.005316773520922734
-0.006741999066043578
-0.005226826061782048
-0.007026845347391038
-0.005098536899176244
-0.006901229203307807
-0.005007537364556534
-0.007040264942627261
-0.004855232615521412
-0.006707692299904168
-0.0047196629282060445
-0.007044574004508847
-0.004608923483721299
0.0056172375517183955
-0.00449275775184777
-0.007042474653821694
-0.0043714489409447665
-0.006617704994340335
-0.004199580436720719
-0.007037041054506326
-0.004067978964154552
-0.006790556975943822
-0.0038897370798569356
-0.007026221388388585
-0.0037119343120239775
-0.006565926185407043
-0.0035351035750297434
-0.007008318879360271
-0.0033779452525107144
-0.0057889188310663925
-0.0031876376456739988
-0.006981914445791363
-0.0030081588128256687
-0.00643864938007203
-0.0028507828662902913
-0.006952271949327417
-0.002618617812136691
-0.006983097722376079
-0.0024573914450667493
-0.006920645286497933
-0.0022027890868028103
-0.006358320501246067
-0.002012917378031131
-0.0068902500625061406
-0.0017461393198082978
-0.004250268398853006
-0.0015447917717116917
-0.0068539179349132034
-0.0012487378960470924
-0.006282364250650265
-0.0010418727936377734
-0.006811210534970859
-0.0007117199039504065
-0.005944654484925769
-0.000494155376221285
-0.0067613778377358415
-0.000140510117946173
-0.006252682073422039
9.103249686745729e-05
-0.006704165954273276
0.0004574335036321733
-0.005978448619119529
0.0007108534927484364
-0.00663865830805623
0.0011036210490225657
-0.006145294448731916
0.001375123998476859
-0.0065648240853894355
0.0017975007599046432
-0.007049799139358973
0.0020926693133329318
-0.006483738467801794
0.0025397496925791438
-0.006100053918763255
0.002905802365872424
-0.006397165144422093
0.0032877411081024773
0.005247811428566728
0.003690711424081932
-0.006307280117520895
0.004095065511944532
-0.005970558685386114
0.004530968290849909
-0.006213454757699443
0.004945971174556482
-0.0066799827224567135
0.005395960357971918
-0.00611403954829465
0.005811639262244205
-0.005837985699641747
0.006273844557898085
-0.006007506591452394
0.0067076759110239245
-0.006114783464215028
0.007191130186643565
-0.005893791795409528
0.007656164814499942
-0.005687681928194252
0.008166727520883574
-0.005773124852050425
0.00872243140775141
-0.0070954493499079
0.009454861112034064
-0.005646141766913781
0.009917297345104043
-0.005611664817252717
0.010454822642583008
-0.00551401080887462
0.010934162352273544
-0.0062491761005463616
0.011298940467416833
-0.005378283219964387
0.011578803504029647
-0.005473613303344922
0.01154428245505917
-0.005241165703791375
0.01178286350068796
0.0009612019552654916
0.01169920802795062
-0.005102957954682515
0.011534690709680882
-0.0052880548301511504
0.011252243986190916
-0.004963125345714158
0.010853194888909484
-0.006398286625394196
0.0103725028237146
-0.004819780904140871
0.0098466486874881
-0.005286957998848933
0.009287174330371954
-0.00467262321724799
0.008601993409872584
-0.007162126130170369
0.008010422264749973
-0.004522363792623885
0.007452378539217676
-0.0051849525795998296
0.006952717849488679
-0.004369802807465741
0.006427479940788608
-0.006500193712498666
0.005965537153339596
-0.004215702010721136
0.00546797371550268
-0.005034689186068795
0.005000568049322793
-0.004060753546735514
0.004533942955466145
-0.006631637916030825
0.004027246435773876
-0.003906032129512771
0.0036465374016942265
-0.004828961661118175
0.003172112069220676
-0.0037527892741269567
0.002822851546479655
-0.0065182822389623415
0.0023578953636479456
-0.0036012314751480636
0.0020437600884970213
0.0010086577832239812
0.0015784971428173913
-0.003449514724971377
0.0012880079634942536
-0.007214291955825948
0.0008441480325590114
-0.0032941337192672606
0.0005680834341615508