# vtk DataFile Version 1.0
GRUMMP topologically 2D mesh
ASCII

DATASET UNSTRUCTURED_GRID
POINTS 6176 float
  1.0000000000000000   0.0000000000000000   0.0000000000000000
  0.9979736161243241   0.0002872981906159   0.0000000000000000
  0.9959038003591104   0.0005818082753016   0.0000000000000000
  0.9937894604158818   0.0008826109490225   0.0000000000000000
  0.9916311447855282   0.0011889740049165   0.0000000000000000
  0.9894256878168368   0.0015011074645448   0.0000000000000000
  0.9871732566523234   0.0018189104108560   0.0000000000000000
  0.9848739492731372   0.0021423104928037   0.0000000000000000
  0.9825241245750710   0.0024717658271048   0.0000000000000000
  0.9801244133260449   0.0028071825305054   0.0000000000000000
  0.9776732769852096   0.0031487906039340   0.0000000000000000
  0.9751690039483889   0.0034968357351786   0.0000000000000000
  0.9726117072730877   0.0038512643819321   0.0000000000000000
  0.9700001180350898   0.0042121148976419   0.0000000000000000
  0.9673332227148538   0.0045793859121594   0.0000000000000000
  0.9646079236541195   0.0049533708962095   0.0000000000000000
  0.9618249648196705   0.0053338679490647   0.0000000000000000
  0.9589807878895711   0.0057213439443832   0.0000000000000000
  0.9560767311296049   0.0061156062701256   0.0000000000000000
  0.9531120216710255   0.0065167463399167   0.0000000000000000
  0.9500819018783057   0.0069253778138591   0.0000000000000000
  0.9469876484068450   0.0073412143029309   0.0000000000000000
  0.9438286210030068   0.0077641908681895   0.0000000000000000
  0.9406001269296587   0.0081947829660712   0.0000000000000000
  0.9373041277084813   0.0086325757434285   0.0000000000000000
  0.9339368121646437   0.0090779560824189   0.0000000000000000
  0.9304976431076690   0.0095309377793780   0.0000000000000000
  0.9269838874379289   0.0099918267186165   0.0000000000000000
  0.9233965242394278   0.0104604374002928   0.0000000000000000
  0.9197323684717913   0.0109371203977286   0.0000000000000000
  0.9159901296799260   0.0114219111797446   0.0000000000000000
  0.9121662515702946   0.0119150917142392   0.0000000000000000
  0.9082612640703632   0.0124164093968364   0.0000000000000000
  0.9042711890176098   0.0129261849544228   0.0000000000000000
  0.9001985925103467   0.0134439182275261   0.0000000000000000
  0.8960367883853674   0.0139703538547480   0.0000000000000000
  0.8917881131106570   0.0145051006126241   0.0000000000000000
  0.8874465968544013   0.0150488093430172   0.0000000000000000
  0.8830132689405343   0.0156012428338051   0.0000000000000000
  0.8784843643309772   0.0161627200549514   0.0000000000000000
  0.8738585592690924   0.0167332093564690   0.0000000000000000
  0.8691331845657406   0.0173128340473851   0.0000000000000000
  0.8643080629784704   0.0179014022230632   0.0000000000000000
  0.8593790220315882   0.0184992057974382   0.0000000000000000
  0.8543443022105112   0.0191062525475961   0.0000000000000000
  0.8492020742372332   0.0197225542022908   0.0000000000000000
  0.8439504592998461   0.0203481184762133   0.0000000000000000
  0.8385847225217766   0.0209832807547837   0.0000000000000000
  0.8331043690503205   0.0216278714070098   0.0000000000000000
  0.8275075883744546   0.0222818740978654   0.0000000000000000
  0.8217896079901662   0.0229456038551552   0.0000000000000000
  0.8159499389768221   0.0236188617887649   0.0000000000000000
  0.8099850870934132   0.0243017702717010   0.0000000000000000
  0.8038929332928342   0.0249942623102002   0.0000000000000000
  0.7976697970229181   0.0256964297179088   0.0000000000000000
  0.7913134730328051   0.0264081777898121   0.0000000000000000
  0.7848218596203610   0.0271293903098903   0.0000000000000000
  0.7781898173908960   0.0278602762976724   0.0000000000000000
  0.7714169256365310   0.0286005013921829   0.0000000000000000
  0.7644979701754163   0.0293502351726533   0.0000000000000000
  0.7574308659438134   0.0301093068082177   0.0000000000000000
  0.7502135053150701   0.0308775557618342   0.0000000000000000
  0.7428404612557281   0.0316551512399728   0.0000000000000000
  0.7353096164115749   0.0324418730798164   0.0000000000000000
  0.7276172963491144   0.0332375368705936   0.0000000000000000
  0.7197598859172740   0.0340418579688506   0.0000000000000000
  0.7117355290536627   0.0348543282856948   0.0000000000000000
  0.7035389878799579   0.0356747811793425   0.0000000000000000
  0.6951650952820780   0.0365031090698871   0.0000000000000000
  0.6866122709923126   0.0373388258653197   0.0000000000000000
  0.6778754950330185   0.0381817369178559   0.0000000000000000
  0.6689534383202176   0.0390312029136988   0.0000000000000000
  0.6598376964403885   0.0398871771799410   0.0000000000000000
  0.6505290121117546   0.0407486821288951   0.0000000000000000
  0.6410191910005383   0.0416153892989160   0.0000000000000000
  0.6313056496470314   0.0424862165552765   0.0000000000000000
  0.6213823079172336   0.0433602824420315   0.0000000000000000
  0.6112489281649386   0.0442362457646169   0.0000000000000000
  0.6008963123926909   0.0451137308907019   0.0000000000000000
  0.5903211292528141   0.0459917803130241   0.0000000000000000
  0.5795184839365645   0.0468692540951747   0.0000000000000000
  0.5684857150099230   0.0477443424041717   0.0000000000000000
  0.5572148862675538   0.0486154402631608   0.0000000000000000
  0.5457024491672809   0.0494805599680832   0.0000000000000000
  0.5339780836677636   0.0503353194116202   0.0000000000000000
  0.5219860728183490   0.0511813660693644   0.0000000000000000
  0.5101253307512127   0.0519891081313360   0.0000000000000000
  0.4985043971600128   0.0527514649709832   0.0000000000000000
  0.4871181100865982   0.0534694955937708   0.0000000000000000
  0.4759663238182478   0.0541439373921026   0.0000000000000000
  0.4650424897306392   0.0547759224024376   0.0000000000000000
  0.4543414694194311   0.0553665338532900   0.0000000000000000
  0.4438615277983380   0.0559167464857066   0.0000000000000000
  0.4335966445555638   0.0564277439227250   0.0000000000000000
  0.4235422171719039   0.0569005367499369   0.0000000000000000
  0.4136931783754329   0.0573360485787389   0.0000000000000000
  0.4040479201781875   0.0577350333573017   0.0000000000000000
  0.3946007843384192   0.0580984587592611   0.0000000000000000
  0.3853459130056055   0.0584273588583778   0.0000000000000000
  0.3762828394437238   0.0587225582688298   0.0000000000000000
  0.3674052759622001   0.0589850521268143   0.0000000000000000
  0.3587104110044708   0.0592156767487264   0.0000000000000000
  0.3501952433465900   0.0594152538281565   0.0000000000000000
  0.3418548081050912   0.0595846279097528   0.0000000000000000
  0.3336858663230149   0.0597246577421592   0.0000000000000000
  0.3256868701986138   0.0598362486465025   0.0000000000000000
  0.3178507769372301   0.0599203474438374   0.0000000000000000
  0.3101776523444911   0.0599777679649948   0.0000000000000000
  0.3026620994593082   0.0600092896252224   0.0000000000000000
  0.2953022098091474   0.0600156089816429   0.0000000000000000
  0.2880942515540157   0.0599974067416477   0.0000000000000000
  0.2810344582773878   0.0599553507162620   0.0000000000000000
  0.2741224198462300   0.0598902308958287   0.0000000000000000
  0.2673508102792782   0.0598027829062179   0.0000000000000000
  0.2607208372897423   0.0596938009430880   0.0000000000000000
  0.2542268737219818   0.0595639532054747   0.0000000000000000
  0.2478699323930078   0.0594139942796022   0.0000000000000000
  0.2416426526986943   0.0592444560641495   0.0000000000000000
  0.2355443386744786   0.0590559928562533   0.0000000000000000
  0.2295742285057687   0.0588492600763349   0.0000000000000000
  0.2237267309732288   0.0586247739586633   0.0000000000000000
  0.2180011540540604   0.0583832555000465   0.0000000000000000
  0.2123936096745636   0.0581252700988444   0.0000000000000000
  0.2069018249031851   0.0578514118247249   0.0000000000000000
  0.2015265925874962   0.0575624139311738   0.0000000000000000
  0.1962639217171782   0.0572587327640815   0.0000000000000000
  0.1911098627978642   0.0569407701058159   0.0000000000000000
  0.1860635373512509   0.0566090833477142   0.0000000000000000
  0.1811225555455632   0.0562641183158228   0.0000000000000000
  0.1762831066659017   0.0559062017034564   0.0000000000000000
  0.1715472965099615   0.0555361405439852   0.0000000000000000
  0.1669099315072494   0.0551541804881659   0.0000000000000000
  0.1623702175183220   0.0547608759938091   0.0000000000000000
  0.1579259317985442   0.0543566416724963   0.0000000000000000
  0.1535748664842349   0.0539418626674859   0.0000000000000000
  0.1493147619729656   0.0535168899310313   0.0000000000000000
  0.1451447283274916   0.0530821904592715   0.0000000000000000
  0.1410625235604109   0.0526380756497570   0.0000000000000000
  0.1370659530359299   0.0521848322503466   0.0000000000000000
  0.1331567814638518   0.0517231967360234   0.0000000000000000
  0.1293276562313525   0.0512528455259629   0.0000000000000000
  0.1255804504092525   0.0507745502773552   0.0000000000000000
  0.1219131281255899   0.0502885988465475   0.0000000000000000
  0.1183237015509818   0.0497952534010120   0.0000000000000000
  0.1148102318092792   0.0492947513229479   0.0000000000000000
  0.1113720175725520   0.0487874812015910   0.0000000000000000
  0.1080070759532941   0.0482736140267307   0.0000000000000000
  0.1047146335147149   0.0477534816268928   0.0000000000000000
  0.1014927513745349   0.0472272179600503   0.0000000000000000
  0.0983395479756496   0.0466949369878610   0.0000000000000000
  0.0952554508934213   0.0461571322873805   0.0000000000000000
  0.0922363866432952   0.0456135046927440   0.0000000000000000
  0.0892828700951544   0.0450645654218522   0.0000000000000000
  0.0863942718297865   0.0445106297655928   0.0000000000000000
  0.0835678320075330   0.0439515803137779   0.0000000000000000
  0.0808019575920066   0.0433874837688950   0.0000000000000000
  0.0780971710598979   0.0428188278852694   0.0000000000000000
[...]
POINT_DATA 6176
SCALARS continuity float
LOOKUP_TABLE default
0.004001045864054979
-0.00031019040214624416
-3.23175892451866e-05
0.00046426821257904345
0.0005007919008312405
0.0004891345868183712
0.0004498710665461733
0.0004274234008724262
0.0004193525497089758
0.0004068350759388495
0.00041088278883442335
0.0003869045895393541
0.0003657082111384026
0.00033714234058346846
0.0003154557637942826
0.0002822084348075266
0.00029414310206433476
0.000307819555685797
0.0003806330871934627
0.0004141588865515506
0.0004537653941791491
0.0004800598420501067
0.0005042008768150217
0.0005149184460552349
0.0005302430890495058
0.0005956844271876533
0.000697170781422141
0.0008207938353626979
0.0009068548568894817
0.0009734608767041888
0.0010379303551579162
0.0010956241124245938
0.0011425212942192517
0.0011639322189200693
0.0011889463985453024
0.001261530681788924
0.0013578863191452252
0.0014680489641906375
0.0015205305313942983
0.0015214190821424627
0.0015026866177553088
0.0014582349595152143
0.001393923144987006
0.0013605919730946114
0.0013713981877222288
0.0013884280555755278
0.0013647344392238333
0.0012884076531784936
0.001189718724992961
0.001087382240590286
0.0009831150759544562
0.0009038856552343763
0.0008678742746032075
0.0008646093838141663
0.0008501313849992725
0.0008024560349635115
0.000748602033749012
0.0007128781620197162
0.000706732406485036
0.0007359961610058423
0.0008130223801712346
0.0009223805764892721
0.0010263719171222667
0.0011142178741989708
0.0012033617130623227
0.0013110006519788386
0.001437559451316861
0.0015765838848958952
0.0017371326279832851
0.001926186068212937
0.0021541137641889513
0.002425915884734356
0.002737908444741561
0.0030975375664743887
0.0034950301446643292
0.003909953215256072
0.004316243906021014
0.004700447336098311
0.0050654410815535325
0.005424958785963614
0.005788074693123119
0.006137709110085696
0.006435189003231315
0.00665675856015662
0.0067807186253689205
0.006596511099477835
0.0063481070979231
0.006259848567820417
0.006107875128556967
0.0058476772840144985
0.0054680164788090966
0.004987981565300522
0.004436787344300461
0.0038333213191076515
0.0031753608067500304
0.002470411363662354
0.0017333513149752683
0.0009919773524253946
0.0002460180323213875
-0.0005072724302570025
-0.001250995601621673
-0.0019508980878104971
-0.002573348595258209
-0.003114184773557043
-0.0035778856565711007
-0.0039641295224630045
-0.004260996592074274
-0.004461209521143458
-0.004582261605007662
-0.004662652551574346
-0.00472281469829338
-0.004760274906846617
-0.00478163484769269
-0.004812602170795056
-0.004864719070417185
-0.0049288530643937355
-0.004983027395774282
-0.004996532191385345
-0.004971637742345832
-0.004960638911155039
-0.00497426261379463
-0.004997616578876846
-0.005026536762704758
-0.005059040915343536
-0.005107266921251384
-0.005177557866537742
-0.005209742000058933
-0.005114681735535653
-0.004904049481635659
-0.004708345325900569
-0.004591000493587547
-0.004530239306193831
-0.00448931792237178
-0.004489743577517906
-0.004537957232173012
-0.004493855755111825
-0.004263826460335768
-0.004072373927288119
-0.003984926941235959
-0.0038932958639716166
-0.0038310302926378584
-0.0037984422275289874
-0.003790844247065511
-0.0038374527235860937
-0.0041375503730407106
-0.004420337359129556
-0.003985841640295115
-0.0035684738830872114
-0.0034814595240640523
-0.003459500212822156
-0.003486664054292998
-0.0035980386135508993
-0.003760543025629313
-0.005199187778342408
-0.003839074419379494
-0.003953831137043648
-0.0035897396084027464
-0.003655661583100689
-0.003461288405702601
-0.00345996480603362
-0.003334568066296936
-0.003295702385193976
-0.004849004474632682
-0.003294395373270129
-0.003216807798579261
-0.003227564947410659
-0.003209448766232475
-0.0030657397996258387
-0.0031383085375955343
-0.003181380776038162
-0.002490065777641076
-0.0032114452550229605
-0.0031466358963659186
-0.0031358049272646044
-0.0030712002345591877
-0.003086180723775552
-0.003009060034618781
-0.004799363708568842
-0.002277731040007885
-0.004688989608418661
-0.002139494575522865
-0.004560796786563815
-0.00166275024649212
-0.004307653622088485
-0.001516635455260651
-0.004151727367976449
-0.0014294206983112333
-0.004076134317976291
-0.0014164757255268814
-0.00419772805225442
-0.0006516446082765002
-0.0010600141774007046
-0.0010020310440845314
-0.00041464164507215237
-5.878711407045667e-05
0.0002555839950411619
0.0003035507577981749
0.000804208653842558
0.0009501667904661596
0.0012940177524921146
0.0012962504152058013
0.0019038366486761776
0.002746096212667181
0.003440838283255127
0.0034652578831641865
0.003161606167912271
0.004353149101300344
0.00444496482965424
0.004222411341157824
0.0043293705465793034
0.004832874593606476
0.00494582816229659
0.004962988143283736
0.005218973413538879
0.005423812808091682
0.005465476588384663
0.004629112667489711
0.004318130873988363
0.0035275677202166573
0.0036330261133076724
0.002845669299661992
0.0016718912011659099
0.0008367803450713977
0.0006029082330650514
6.0107320629460616e-05
-6.780594849161017e-05
-0.0003144455205169723
-0.0009143336412019432
-0.001059808663029861
-0.001807869663639489
-0.0011630734705446767
-0.001753344302128839
-0.0010200588391384114
-0.0038027149498784042
-0.0014622050521431989
-0.0042212967366511
-0.002051257042284848
-0.004595552973312029
-0.002346184952951787
-0.004843093456808581
-0.0026087876140883093
-0.005098671140171811
-0.0027575267160540036
-0.005519177096036347
-0.003022971255729378
-0.005687164586298569
-0.00314493870932178
-0.005772855422563195
-0.0038081301018101327
-0.0037294863490098355
-0.0036425021704879356
-0.004056245790019674
-0.0029922182849377744
-0.0032728428069420854
-0.003123933093673791
-0.002849935437469816
-0.002764043306475195
-0.002632133642590276
-0.002645600127839208
-0.002728452791585161
-0.004446383433577568
-0.0029674704918535803
-0.0031006933872177443
-0.003155741820654139
-0.003044767494419392
-0.003136672957129473
-0.0029733718618578995
-0.0032446581159904096
-0.0028701851993774086
-0.0025902212844247678
-0.0035694128339595695
-0.0022392391179767166
-0.0021029892898879266
-0.002101256627850845
-0.0021149268694519887
-0.0023849559983313952
-0.002698838763888614
-0.0025587822644344334
-0.0021516069233689502
-0.0018677083401532019
-0.001721884849094303
-0.0016151872718400977
-0.0015419758850984291
-0.0015123279784648295
-0.0014898632447318003
-0.001503897510000574
-0.0016462770224171801
-0.0018058245206301314
-0.0017911709181250026
-0.0016011096417024129
-0.0013673422561748167
-0.0011995855207361408
-0.001088965900355024
-0.0010180254363977709
-0.0010053477556469584
-0.0010654165553934723
-0.001154655635931214
-0.001154430578949
-0.0010435383762254138
-0.0008945373843913876
-0.0007647725134196938
-0.000643762491948476
-0.0005281320262078645
-0.00042408665896497634
-0.0003573584870776359
-0.0003115492340090626
-0.00024283952181071268
-0.00013021876897699347
1.0471163175967803e-05
0.00015489604072551095
0.0002848106962338151
0.0004032170452268783
0.0005287746064930077
0.0006937830029456641
0.0009020204109297373
0.001133142470744092
0.001385473109614162
0.0016721109008112087
0.0019965980966646234
0.0023394297566702014
0.002686738817287443
0.0030373024909269436
0.0033880571590836133
0.0036995562416411707
0.003944673412254378
0.004120009180068602
0.004226522771607674
0.004268546419278596
0.004255058813619166
0.004181577308292277
0.004048199477632122
0.003857007384801843
0.0036046339894810348
0.003274907348441399
0.0028583166861458394
0.0023724780819171063
0.001858430041773683
0.001401373669842034
0.0012497373702465761
0.0011182652966010944
0.0006874145585642062
0.0002029990687028143
-0.00028085249929727475
-0.000752249171207427
-0.0011928999121984284
-0.0015806112429812456
-0.001898933858100406
-0.00213835976829817
-0.0022899225197341804
-0.002354626822800273
-0.00236674143332884
-0.002359843227043773
-0.00233541533885595
-0.0022658559817192543
-0.0021435910289312435
-0.001986179402307505
-0.0018060928977176424
-0.0016029211704974384
-0.0013868180793270202
-0.001193659216183883
-0.0010738098510039247
-0.0010357570737502208
-0.0010323219789482967
-0.00099181352536545
-0.0008674387728322848
-0.0006737595437749396
-0.0004464181443115072
-0.00022959330886997029
-6.575914001948625e-05
3.7241027819788985e-05
0.00015639482587781229
0.0003468251074854059
0.0005857313445162219
0.0008256171252883612
0.001052943628116962
0.0012628832492185846
0.0014426110218772506
0.0015585977716671034
0.0015793852671165335
0.0015357433157739972
0.001528365730177494
0.0015782197922325737
0.001631051268910331
0.0016464749873585246
0.0016301205803837086
0.0015919139625065778
0.0015263506804994726
0.0013938212618052105
0.0012048255330475302
0.0010472657494117051
0.0009222309987737229
0.0008322744554881192
0.0007257192091560642
0.0005853179235194978
0.0004203040075242532
0.00022390291934576114
-7.756482256130197e-06
-0.00016060239883418582
-0.00019242099917646648
-0.000313226601810145
-0.00040105422005980715
-0.00045815222403147623
-0.0004894895573453238
-0.0005030294771357139
-0.0005378027825779609
-0.0005131698727213237
-0.0005131358753589948
-0.0003838482425618601
-0.00021848554654129438
-5.572397729551886e-06
0.0001612098995602255
0.000321355226820632
0.0004471035496026397
0.0005445983101540361
0.0006527187061223995
0.0007176028193940348
0.0007886848884707517
0.0008571358434585421
0.0008472749510713293
0.000694496923881212
0.00030049106333934886
3.53120499501078e-05
0.0007668673683659896
-0.0003142944847543407
-0.0005615317889494469
0.0006605463724429279
-0.0006324094431453158
-0.003015763741897147
-0.0019321982958344396
-0.0003491352196563325
0.0002732687230691668
-0.004760087942387971
0.00020215844903477033
0.0008321028207485217
0.00040552299256355995
0.0028988301145012785
0.00045540972872427444
-0.0005482352182813834
0.00046234625769867943
-0.004917831722468652
0.0003704697424174921
-0.0005064337076340914
0.0003689562792003317
-0.000661407552711055
0.0003754708115897501
-0.0010271510147495401
0.0003530768209078118
-0.004979120881945701
0.00035076586115272466
2.8636127536291778e-05
0.00033313934848571553
-0.003060389671595393
0.00029816914049378635
-0.0017048789399926887
0.00027626686733611477
-0.004944390411449584
0.0002461108162415239
0.0002859244259097496
0.00021550301451572288
-0.0017427333581238667
0.00023035221176817016
-0.0017712659441727003
0.0002469163676549591
-0.0048657288479853796
0.0002967742261821665
0.0003631324694142579
0.00035565931393985076
-0.00029818669054422047
0.00038859596035598315
-0.0022721058639553126
0.00041397742286557263
-0.004820899224604326
0.0004220288531331188
-0.00042672455114828686
0.0004320610840223631
-0.0021784956364874295
0.0004722191086800922
-0.00197678712934502
0.000549268524678734
-0.004794652647683726
0.0006593362077983017
-0.0011451150169784932
0.0007613505841318993
-0.0034358490124398104
0.000842412038086763
-0.0031207379340421285
0.000910940932924938
-0.004789591964299246
0.0009743223037343738
-0.0014766876322327895
0.0010341730906377527
-0.0020112757934029
0.0010743102456389777
-0.002742909666185134
0.0010897164450039422
-0.0047943848665148005
0.0011299375637859304
-0.0011814756412250875
0.0012062737673215996
0.0024818590806995637
0.0013151123561798163
-0.002613281288423007
0.0014204143667987989
-0.0047914762068779525
0.0014659255582831373
-0.0012624669500180697
0.0014673999602008313
-0.001986059555003101
0.001443372951884395
-0.002637816454848993
0.0013900607690845337
-0.004804590569929046
0.0013327953343466124
-0.001326823057996995
0.0013159243006421546
-0.0036474709084176587
0.0013303597680409255
-0.0029022953980882
0.0013467531400981347
-0.004800083568707528
0.0013085482575899338
-0.0015634068183148478
0.0012265019450545488
-0.0022967234672104982
0.0011279587470456327
-0.003033033354519123
0.0010205248232292691
-0.004723524594244082
0.0009173639564704863
-0.002736036015174839
0.0008492425376222357
-0.0003496549011520856
0.0008248332014760627
-0.0037377594606998847
0.0008225376962909383
-0.004501420078371678
0.0007982622841878534
-0.0027817718682991107
0.0007438799973067256
-0.0032000073868684495
0.0006919885980242252
-0.003890448350564731
0.0006610528854294357
-0.0044362725012512295
0.0006600832087282789
-0.0025326200383080835
0.0007058511251234277
-0.003762977426860423
0.0007983024838862742
-0.0036678491620422415
0.0009123274736635821
-0.004431644547629986
0.0010116428492658262
-0.0027685528473938344
0.0011006529587095741
-0.0031446784070073013
0.0011954411333003692
-0.0035174731627243723
0.0013085561745243075
-0.0044785692101974705
0.0014352136953259165
-0.002857682107867349
0.0015759042551331216
0.008214997759762654
0.001741772097621635
-0.003842244649286236
0.0019408285125455727
-0.00449454822578548
0.0021831156566452787
-0.0024978715452596352
0.002466456260660347
-0.0034871522735615973
0.002788599090072009
-0.003200552057593793
0.0031512310208809697
-0.004487139036897355
0.0035538179475280924
-0.0023847212872611726
0.003971150322652005
-0.003843411663141268
0.004380928867215396
-0.0033171828173351073
0.004771181029156815
-0.004506950909562347
0.005148484370349143
-0.0026933145865330613
0.0055211037691634945
-0.0030832062002146827
0.0058934844161320134
-0.0033075350373514595
0.006239723404267212
-0.004485658884824023
0.006522545837797614
-0.003004243956141302
0.006730820445472302
-0.0006504956393101123
0.006843044399857045
-0.003122262244027939
0.006626959765847404
-0.004424912310795316
0.0063812263443696095
-0.0026533243340044576
0.0062839712946129635
-0.0033235862570466877
0.006137716146759049
-0.002622664452725263
0.005903029867732183
-0.004256218783828677
0.00555554900792013
-0.0027583394972076295
0.005095613717951857
-0.003810995388277458
0.00455500974526413
-0.002650749477366171
0.00395982615420746
-0.004022301150859517
0.0033137072442827307
-0.0026168801791439434
0.0026185875708973024
-0.0039746229547260375
0.0018913314151824462
-0.0028677872642314103
0.0011535435820425161
-0.003796642497562295
0.0004181743823660091
-0.003672344173273023
-0.00031254753761388574
0.0020399986944277504
-0.0010346400282786293
-0.0036963338876012876
-0.0017272621902917752
-0.003651426312798739
-0.0023524810872027945
-0.003701379857786156
-0.002894856033128861
-0.0029526716665306176
-0.0033537821956979527
-0.003359141539643002
-0.003732003574688386
-0.003670968135633026
-0.004025997656227818
-0.003145188514606551
-0.004222731503421861
-9.943115705496368e-06
-0.004328063530803728
-0.002978663751441812
-0.004372093344245937
-0.0037052387746954684
-0.004394676923767409
-0.002768473258680634
-0.004415607806946411
-0.004014000190445389
-0.004426132353680633
-0.002729744625628462
-0.00443645396003168
-0.0038443350963353845
-0.004461552064568924
-0.0026047871118643684
-0.004497049962180488
0.0009159216886599256
-0.004530188587369695
-0.0028850554417007394
-0.004527707953200914
-0.003839329386734121
-0.004474760572353142
-0.0033858592361700733
-0.004396077842530261
-0.0032488444441298786
-0.0043622961000657975
-0.0036304581584302394
-0.004364825735009472
-0.0038520743206162623
-0.004381072456372746
-0.0034048326547310177
-0.0043896059312765615
-0.003735979365465151
-0.0044061561936800135
-0.0032779258107728648
-0.004438825661741109
-0.00359029326388776
-0.004443879850362818
-0.003103972185704585
-0.004341215953768625
-0.0030632062419804237
-0.004107220233223454
-0.003021378084724118
-0.0038478069273045544
-0.003271892988776077
-0.0036679927186205243
-0.0030616080849780753
-0.003574542204756997
0.0001081865484750867
-0.0035359707806628545
-0.003090608638602654
-0.0035276563284030184
-0.003335848508630822
-0.003479590342588612
-0.0030477554120356136
-0.003414740892192994
-0.0038249019996344663
-0.0031991603236847473
-0.0031610760079469422
-0.002969388913285287
-0.0033587068791128562
-0.002846545299426787
-0.003562003637260787
-0.002779807696816025
-0.003550339854132458
-0.0026966901280082163
-0.0035923000080264637
-0.002635678157698252
-0.0033285468875616057
-0.002645423502888975
-0.003669943553699573
-0.00269186606344319
-0.0031909726695799716
-0.002836836960091676
-0.003675579305456085
-0.0030638334001984817
-0.0034061271335753046
-0.002669147430331088
-0.0036409248505627355
-0.0023460185174609014
0.0034698074309567313
-0.002163078224931902
-0.003674899617513134
-0.0021536821939551073
-0.003760590586734315
-0.0021890838369238406
-0.0036987237924937535
-0.0022981715266228967
-0.0026076637297286426
-0.00243811479157498
-0.003823945490729137
-0.002414518404438881
-0.003750670319897159
-0.002561810836765405
-0.004039840096084898
-0.002536963808219889
-0.0033212973992256087
-0.0025434561048301688
-0.004382752778092869
-0.0021652814945274964
-0.0038138668088986616
-0.0019720622561997343
-0.004492779774317964
-0.0019125425834523493
0.0007450475465959252
-0.0018261336773872038
-0.004503988564375455
-0.0017989016521076035
-0.0038095813118432585
-0.0018972069834291925
-0.004474014717173752
-0.0018526296759000822
-0.00021360806185994079
-0.0016572212223043012
-0.0044603779047203175
-0.0018011400481593928
-0.004003684052422372
-0.0015169718555085971
-0.004441664826245789
-0.0016576993297666256
-0.0035939987907546633
-0.0014520186002878327
-0.004420025789529405
-0.0014709461251374853
-0.00307683798238672
-0.0015072002872749428
-0.004416857880053614
-0.0014547843881668003
-0.003200311452376227
-0.0015818795400944865
-0.0044659841813936025
-0.0013641787600714038
-0.0032115881273561153
-0.0014159364988003064
-0.004560960107243341
-0.0013089387343998178
0.003272429743753481
-0.0013605342301662604
-0.004632607603102099
-0.0014792117461876987
-0.0031114230267752755
-0.001222499432211364
-0.0046342761123310434
-0.0012325158181141582
0.0010644915875006053
-0.0008618333756895678
-0.00460159239991602
-0.0007133416610389186
-0.0036140491245297657
-0.00036318467628282717
-0.004572206846316201
-0.000549561108740623
-0.004484098506160012
-0.00029203934186015424
-0.00455413506978774
-0.00040471226029967206
-0.0037124649814954413
-0.00028304570889688336
-0.004546168739450325
-0.00039658277931882825
-0.003274996398965318
-0.00032598731807381573
-0.004547131914038952
-0.00018077709445332357
-0.003998290470595016
0.00010860272539937489
-0.004544674679357125
-6.795048740323545e-05
0.00023650177568721543
0.00028711812809742074
-0.004552758419558487
0.0003022033810140776
-0.0041971769810803
0.0010649747413330928
-0.004519130169506482
0.0005811271911000098
-7.485537886240846e-05
0.0010166610080979178
-0.004420154023481889
0.00042210504478188397
-0.004510506186392356
0.0008033545585448309
-0.004227099323345645
-0.0001383070771016975
-0.003642771609748373
8.791356620079064e-05
-0.003938095860881217
-0.000523544791164498
-0.004775394900698377
-0.00011548563262629382
-0.0035638619001885936
0.00020849068434885778
-0.0028994154690722205
0.0004219246438595732
-0.0031105737899581416
0.0011309351765398307
-0.0036300682272549087
0.0013052114196729521
-0.0025781735565051107
0.001516867967186465
-0.0030630342156124234
0.0017492687725400372
-0.001960183534697434
0.0018456005554594477
-0.0035289384554206605
0.002600391723424773
-0.001275894420212044
0.0027135748242473404
0.008798692311410809
0.003104925444443349
-0.0005516470073111108
0.003403646907897124
-0.002880280118363686
0.0035842524163603594
0.00019268682276072497
0.003662757161957717
-0.0036704680463771748
0.003373952818691551
0.000951304617372966
0.0029010797775568405
-0.003662669472949153
0.0019735107220733104
0.0017103693923484304
0.0014635922342725379
-0.002890675695933649
0.0011877240942020396
0.0024576740486853014
0.0005554979648483026
-0.0034746652604147102
0.0007830533394390909
0.0031657522818892884
0.00018353084469985807
-0.003715878389248563
0.0007446139235726924
0.0038203921407465023
0.00029681876744565094
-0.0035882527339913548
0.00045613275624794994
0.004422709129705862
0.0004912760472749675
6.858663639983837e-05
-4.943127891297676e-05
0.004969786932691125
-0.0003895878364931079
-0.003695045006397233
-0.00018591414220271577
0.0054387485516683145
-0.00011355464622278687
-0.0025577299925655388
-0.0005270450807461683
0.0057992907408068286
-0.00022759876080245367
-5.3288561054011717e-05
-0.00064924384126587