# vtk DataFile Version 1.0
GRUMMP topologically 2D mesh
ASCII

DATASET UNSTRUCTURED_GRID
POINTS 6176 float
  1.0000000000000000   0.0000000000000000   0.0000000000000000
  0.9979736161243241   0.0002872981906159   0.0000000000000000
  0.9959038003591104   0.0005818082753016   0.0000000000000000
  0.9937894604158818   0.0008826109490225   0.0000000000000000
  0.9916311447855282   0.0011889740049165   0.0000000000000000
  0.9894256878168368   0.0015011074645448   0.0000000000000000
  0.9871732566523234   0.0018189104108560   0.0000000000000000
  0.9848739492731372   0.0021423104928037   0.0000000000000000
  0.9825241245750710   0.0024717658271048   0.0000000000000000
  0.9801244133260449   0.0028071825305054   0.0000000000000000
  0.9776732769852096   0.0031487906039340   0.0000000000000000
  0.9751690039483889   0.0034968357351786   0.0000000000000000
  0.9726117072730877   0.0038512643819321   0.0000000000000000
  0.9700001180350898   0.0042121148976419   0.0000000000000000
  0.9673332227148538   0.0045793859121594   0.0000000000000000
  0.9646079236541195   0.0049533708962095   0.0000000000000000
  0.9618249648196705   0.0053338679490647   0.0000000000000000
  0.9589807878895711   0.0057213439443832   0.0000000000000000
  0.9560767311296049   0.0061156062701256   0.0000000000000000
  0.9531120216710255   0.0065167463399167   0.0000000000000000
  0.9500819018783057   0.0069253778138591   0.0000000000000000
  0.9469876484068450   0.0073412143029309   0.0000000000000000
  0.9438286210030068   0.0077641908681895   0.0000000000000000
  0.9406001269296587   0.0081947829660712   0.0000000000000000
  0.9373041277084813   0.0086325757434285   0.0000000000000000
  0.9339368121646437   0.0090779560824189   0.0000000000000000
  0.9304976431076690   0.0095309377793780   0.0000000000000000
  0.9269838874379289   0.0099918267186165   0.0000000000000000
  0.9233965242394278   0.0104604374002928   0.0000000000000000
  0.9197323684717913   0.0109371203977286   0.0000000000000000
  0.9159901296799260   0.0114219111797446   0.0000000000000000
  0.9121662515702946   0.0119150917142392   0.0000000000000000
  0.9082612640703632   0.0124164093968364   0.0000000000000000
  0.9042711890176098   0.0129261849544228   0.0000000000000000
  0.9001985925103467   0.0134439182275261   0.0000000000000000
  0.8960367883853674   0.0139703538547480   0.0000000000000000
  0.8917881131106570   0.0145051006126241   0.0000000000000000
  0.8874465968544013   0.0150488093430172   0.0000000000000000
  0.8830132689405343   0.0156012428338051   0.0000000000000000
  0.8784843643309772   0.0161627200549514   0.0000000000000000
  0.8738585592690924   0.0167332093564690   0.0000000000000000
  0.8691331845657406   0.0173128340473851   0.0000000000000000
  0.8643080629784704   0.0179014022230632   0.0000000000000000
  0.8593790220315882   0.0184992057974382   0.0000000000000000
  0.8543443022105112   0.0191062525475961   0.0000000000000000
  0.8492020742372332   0.0197225542022908   0.0000000000000000
  0.8439504592998461   0.0203481184762133   0.0000000000000000
  0.8385847225217766   0.0209832807547837   0.0000000000000000
  0.8331043690503205   0.0216278714070098   0.0000000000000000
  0.8275075883744546   0.0222818740978654   0.0000000000000000
  0.8217896079901662   0.0229456038551552   0.0000000000000000
  0.8159499389768221   0.0236188617887649   0.0000000000000000
  0.8099850870934132   0.0243017702717010   0.0000000000000000
  0.8038929332928342   0.0249942623102002   0.0000000000000000
  0.7976697970229181   0.0256964297179088   0.0000000000000000
  0.7913134730328051   0.0264081777898121   0.0000000000000000
  0.7848218596203610   0.0271293903098903   0.0000000000000000
  0.7781898173908960   0.0278602762976724   0.0000000000000000
  0.7714169256365310   0.0286005013921829   0.0000000000000000
  0.7644979701754163   0.0293502351726533   0.0000000000000000
  0.7574308659438134   0.0301093068082177   0.0000000000000000
  0.7502135053150701   0.0308775557618342   0.0000000000000000
  0.7428404612557281   0.0316551512399728   0.0000000000000000
  0.7353096164115749   0.0324418730798164   0.0000000000000000
  0.7276172963491144   0.0332375368705936   0.0000000000000000
  0.7197598859172740   0.0340418579688506   0.0000000000000000
  0.7117355290536627   0.0348543282856948   0.0000000000000000
  0.7035389878799579   0.0356747811793425   0.0000000000000000
  0.6951650952820780   0.0365031090698871   0.0000000000000000
  0.6866122709923126   0.0373388258653197   0.0000000000000000
  0.6778754950330185   0.0381817369178559   0.0000000000000000
  0.6689534383202176   0.0390312029136988   0.0000000000000000
  0.6598376964403885   0.0398871771799410   0.0000000000000000
  0.6505290121117546   0.0407486821288951   0.0000000000000000
  0.6410191910005383   0.0416153892989160   0.0000000000000000
  0.6313056496470314   0.0424862165552765   0.0000000000000000
  0.6213823079172336   0.0433602824420315   0.0000000000000000
  0.6112489281649386   0.0442362457646169   0.0000000000000000
  0.6008963123926909   0.0451137308907019   0.0000000000000000
  0.5903211292528141   0.0459917803130241   0.0000000000000000
  0.5795184839365645   0.0468692540951747   0.0000000000000000
  0.5684857150099230   0.0477443424041717   0.0000000000000000
  0.5572148862675538   0.0486154402631608   0.0000000000000000
  0.5457024491672809   0.0494805599680832   0.0000000000000000
  0.5339780836677636   0.0503353194116202   0.0000000000000000
  0.5219860728183490   0.0511813660693644   0.0000000000000000
  0.5101253307512127   0.0519891081313360   0.0000000000000000
  0.4985043971600128   0.0527514649709832   0.0000000000000000
  0.4871181100865982   0.0534694955937708   0.0000000000000000
  0.4759663238182478   0.0541439373921026   0.0000000000000000
  0.4650424897306392   0.0547759224024376   0.0000000000000000
  0.4543414694194311   0.0553665338532900   0.0000000000000000
  0.4438615277983380   0.0559167464857066   0.0000000000000000
  0.4335966445555638   0.0564277439227250   0.0000000000000000
  0.4235422171719039   0.0569005367499369   0.0000000000000000
  0.4136931783754329   0.0573360485787389   0.0000000000000000
  0.4040479201781875   0.0577350333573017   0.0000000000000000
  0.3946007843384192   0.0580984587592611   0.0000000000000000
  0.3853459130056055   0.0584273588583778   0.0000000000000000
  0.3762828394437238   0.0587225582688298   0.0000000000000000
  0.3674052759622001   0.0589850521268143   0.0000000000000000
  0.3587104110044708   0.0592156767487264   0.0000000000000000
  0.3501952433465900   0.0594152538281565   0.0000000000000000
  0.3418548081050912   0.0595846279097528   0.0000000000000000
  0.3336858663230149   0.0597246577421592   0.0000000000000000
  0.3256868701986138   0.0598362486465025   0.0000000000000000
  0.3178507769372301   0.0599203474438374   0.0000000000000000
  0.3101776523444911   0.0599777679649948   0.0000000000000000
  0.3026620994593082   0.0600092896252224   0.0000000000000000
  0.2953022098091474   0.0600156089816429   0.0000000000000000
  0.2880942515540157   0.0599974067416477   0.0000000000000000
  0.2810344582773878   0.0599553507162620   0.0000000000000000
  0.2741224198462300   0.0598902308958287   0.0000000000000000
  0.2673508102792782   0.0598027829062179   0.0000000000000000
  0.2607208372897423   0.0596938009430880   0.0000000000000000
  0.2542268737219818   0.0595639532054747   0.0000000000000000
  0.2478699323930078   0.0594139942796022   0.0000000000000000
  0.2416426526986943   0.0592444560641495   0.0000000000000000
  0.2355443386744786   0.0590559928562533   0.0000000000000000
  0.2295742285057687   0.0588492600763349   0.0000000000000000
  0.2237267309732288   0.0586247739586633   0.0000000000000000
  0.2180011540540604   0.0583832555000465   0.0000000000000000
  0.2123936096745636   0.0581252700988444   0.0000000000000000
  0.2069018249031851   0.0578514118247249   0.0000000000000000
  0.2015265925874962   0.0575624139311738   0.0000000000000000
  0.1962639217171782   0.0572587327640815   0.0000000000000000
  0.1911098627978642   0.0569407701058159   0.0000000000000000
  0.1860635373512509   0.0566090833477142   0.0000000000000000
  0.1811225555455632   0.0562641183158228   0.0000000000000000
  0.1762831066659017   0.0559062017034564   0.0000000000000000
  0.1715472965099615   0.0555361405439852   0.0000000000000000
  0.1669099315072494   0.0551541804881659   0.0000000000000000
  0.1623702175183220   0.0547608759938091   0.0000000000000000
  0.1579259317985442   0.0543566416724963   0.0000000000000000
  0.1535748664842349   0.0539418626674859   0.0000000000000000
  0.1493147619729656   0.0535168899310313   0.0000000000000000
  0.1451447283274916   0.0530821904592715   0.0000000000000000
  0.1410625235604109   0.0526380756497570   0.0000000000000000
  0.1370659530359299   0.0521848322503466   0.0000000000000000
  0.1331567814638518   0.0517231967360234   0.0000000000000000
  0.1293276562313525   0.0512528455259629   0.0000000000000000
  0.1255804504092525   0.0507745502773552   0.0000000000000000
  0.1219131281255899   0.0502885988465475   0.0000000000000000
  0.1183237015509818   0.0497952534010120   0.0000000000000000
  0.1148102318092792   0.0492947513229479   0.0000000000000000
  0.1113720175725520   0.0487874812015910   0.0000000000000000
  0.1080070759532941   0.0482736140267307   0.0000000000000000
  0.1047146335147149   0.0477534816268928   0.0000000000000000
  0.1014927513745349   0.0472272179600503   0.0000000000000000
  0.0983395479756496   0.0466949369878610   0.0000000000000000
  0.0952554508934213   0.0461571322873805   0.0000000000000000
  0.0922363866432952   0.0456135046927440   0.0000000000000000
  0.0892828700951544   0.0450645654218522   0.0000000000000000
  0.0863942718297865   0.0445106297655928   0.0000000000000000
  0.0835678320075330   0.0439515803137779   0.0000000000000000
  0.0808019575920066   0.0433874837688950   0.0000000000000000
  0.0780971710598979   0.0428188278852694   0.0000000000000000
[...]
POINT_DATA 6176
SCALARS continuity float
LOOKUP_TABLE default
-0.00011743037520220906
-0.0017603973306077065
-0.002586134518132211
-0.0024208618188532064
-0.0023443819028533684
-0.002194460162884343
-0.0018722574237520072
-0.00169154285751625
-0.0015625313955792328
-0.0014271616072773793
-0.001279079782331012
-0.0011935944750015163
-0.0009852432638200233
-0.0008001130676838354
-0.0005793251945294498
-0.0003869537360368942
-0.00024325813408303002
-0.0001273123807115718
8.836686391147274e-06
0.00010835266962390062
0.0002795053788965168
0.00044056315578838424
0.000596228661674362
0.000753764107039348
0.0008729282252404538
0.0009670145346602319
0.001055228593008679
0.001153754704190122
0.0012511521104443953
0.0013530847828219963
0.0014441034854368337
0.0015213824255428735
0.001588260347559632
0.0016696672371275393
0.0017580510004616397
0.001824632018513239
0.0018680613013177334
0.0018874994991338074
0.0019391433992076768
0.0020233693602447664
0.0021094052284334882
0.0021962199534865117
0.0022996442337185953
0.0024029094791680984
0.002486037292900545
0.002552679176936308
0.0026367920868755486
0.002756444799280991
0.0028857929775367402
0.003007487584556671
0.0031328103201297345
0.003271895867414301
0.0034138053829026065
0.0035432823961447273
0.0036706175609667827
0.00381074241887492
0.003951793707800208
0.004075750894035678
0.004185235320901894
0.004295040722934875
0.00441139204083175
0.00452664670623282
0.004635472223697941
0.004736958138873407
0.004828782908356321
0.004906238543603001
0.004974140633623022
0.005032535532968991
0.005077304400597
0.005110968166109769
0.005144729599446727
0.005173338959181639
0.005182816510579639
0.005147516921881013
0.0050574957096531726
0.0049212429724178035
0.004753505925571179
0.004564674494390532
0.004354136387394956
0.004111886837662598
0.0038148500205063512
0.0034558796983622853
0.003033159599396428
0.0025444486439885152
0.001993910469935735
0.0015137447104958978
0.0011290819825851438
0.0006391422726665924
6.566313419891138e-05
-0.0005400557152250167
-0.0011107047295534302
-0.001625170669991484
-0.002105998219087042
-0.002575801959178274
-0.003029213741680343
-0.00344297250312683
-0.0038033744412173
-0.004111325917389876
-0.004357196256629417
-0.004511418989688034
-0.004558134196403865
-0.004520762286943415
-0.004442425089067249
-0.004334362302928979
-0.004184501379608802
-0.003988998989169934
-0.003767156400727849
-0.003537793845100919
-0.0032815656978097394
-0.002972533782644362
-0.0026172948472339167
-0.0022706962662513005
-0.001961815516022312
-0.001688548175077268
-0.0014411319412510964
-0.0012352019853556849
-0.0010930769631722521
-0.0010102467556797885
-0.0009361780205885259
-0.0008151634672539047
-0.0006531579127761596
-0.0005072054465454834
-0.00039673613537123263
-0.0003129828214434898
-0.00023806574320411647
-0.00017243249772955444
-0.00014756642997291184
-0.00019118841595273966
-0.0002561769289478443
-0.00024276970257863364
-0.00016186512561730478
-7.86381288743154e-05
-3.427135324434699e-05
-1.6653137385818587e-06
3.973309831651169e-05
1.2514453744766379e-05
-0.00014657562071719013
-0.00017745086443027674
-7.826589356383344e-05
-4.265079228609302e-05
-3.76127083001993e-05
-2.5756037324079444e-05
7.183976478958689e-08
7.021950330749518e-05
0.0002006200595262707
0.00015314571376400112
-4.99899884775621e-05
-6.915627770727551e-05
7.271625367961666e-05
0.00016667022523513382
0.00022511595152895932
0.00034809312680094133
0.0005274421014346312
0.000780799510075442
0.0003807667463945121
0.00034910417230914366
0.0002902228022046488
0.0003685725427730264
0.0005025332899594814
0.0005809358036067273
0.0005705382425966591
0.0006846955392804686
0.001087490282196465
0.000569270404171864
0.0003581222877831156
0.0004120621034964424
0.0004329463113036783
0.0005425941637886068
0.0006839966689678106
0.0007800074010495275
0.0006067410645349793
0.0010801868753563429
0.0010074835591051875
0.0010298294429560639
0.0009930465720703232
0.0011166398615849377
0.0012066190140995285
0.0020959674348702945
0.0010220294735314149
0.0022286984411128987
0.0011981068567384413
0.002485671383901268
0.0014729691665958504
0.0029739850076365747
0.0019005460000246744
0.0033849078910535924
0.0022709564301435347
0.0038166184679447397
0.0026252200525479046
0.004328931443818604
0.002662606032337872
0.0032193110037943423
0.0035702592567560597
0.0037379172912422815
0.004023188121098765
0.004340823657061497
0.004750234034104756
0.005010338505246765
0.0054516709696844886
0.005800411650975421
0.006186234885310425
0.0063737803368121146
0.006353823002391514
0.006140259832427774
0.006079240219513271
0.005051260823200137
0.004849064896172983
0.004758189832976717
0.004499979825893542
0.0041719405619986055
0.0035812402498586315
0.0030107374828074393
0.0021498303645053353
0.001459344658741857
0.0006776550565780113
-5.11049001876668e-05
-0.0007385940640986465
-0.0012949691440453752
-0.0015537236335668348
-0.00155836446495787
-0.0017012791456517493
-0.0019505396442735118
-0.002237175379167027
-0.0023843451702072905
-0.0024420034499456037
-0.0026399626496170256
-0.0025406704065403774
-0.0024268683515117763
-0.0026854362245530223
-0.0022026747204372883
-0.0029145700722792724
-0.002578695419248569
-0.0030998690412842853
-0.0018856007243535258
-0.002722385694845745
-0.0015488978393616223
-0.0022209399840902714
-0.0011115320665526468
-0.0018794932346905039
-0.0008094379754385556
-0.001579375000766792
-0.000429904193639558
-0.001266724563941557
-0.0002401530235869409
-0.0009822567229136343
8.238189196488698e-05
-0.0007088756619690851
0.00036129187305030715
-0.00030920217503555215
-0.0003912787769247947
-0.0006703378206378633
-0.00028454507641518097
-0.0010124153365953306
-0.0006575562581826532
-0.0007317007323889347
-0.0007065425103835706
-0.0007547637342840085
-0.00065959518410695
-0.0005810767988773313
-0.00018989845634282754
0.0004911478089546259
0.00023282729683203043
0.00033170643274140805
0.00047199046619065047
0.00038698673863631804
0.00022092188814302113
0.0001423132331260928
0.0003252035811222825
0.00013597036366941401
0.00021418153147998188
0.0006836367105747322
0.00016029232573806313
5.018534764969506e-06
-3.3083621135079407e-06
-0.00010108438787986486
-1.0687749205323026e-05
0.000310866308482846
0.0003677322497572032
0.000172374952306872
-0.00011761458995991755
-0.000278785647676731
-0.00035740948318581183
-0.00039706236125933245
-0.0004254266581224899
-0.0004927544128289099
-0.0005470144578459965
-0.00041101170017595354
-0.00020055205543366826
-5.040351472915643e-05
-0.00016894699745227454
-0.0003680623856458943
-0.0005140510018684258
-0.00062981148552225
-0.0007320695840644074
-0.0007700163934663544
-0.0007138018797518717
-0.0005845502596866121
-0.0005215466058508023
-0.0005531813855644663
-0.0006084460513068615
-0.0006645989489770861
-0.0007331163173660802
-0.0008073914952613107
-0.0008624001098714157
-0.0008665396256535812
-0.0008342090280001238
-0.00078996826635571
-0.0007495023196290216
-0.0007032649624058957
-0.0006423524894517013
-0.0005679985379935091
-0.0004846933404319855
-0.00040724724707700996
-0.0003401015512436384
-0.0002766257025703366
-0.00020355579705525802
-0.0001285678305382057
-6.790654383431849e-05
-3.9820137549675854e-05
-4.9426120222916546e-05
-0.00010146969296372114
-0.00020097363765558487
-0.00033735152352273856
-0.0004763175416080463
-0.0005961871810321479
-0.0007005516600042645
-0.0007905916200904024
-0.0008530965824743333
-0.000882855156034197
-0.0008735938233001315
-0.0008256160370195011
-0.0007354062881560961
-0.0005954564319843213
-0.0003950855926894968
-0.00012558577993291334
0.00019319505629120622
0.0005132264625565665
0.0007701784748096359
0.000865033241076964
0.0012248122878481434
0.0017705368912856584
0.002267526257953621
0.0027110207345197915
0.0031113665227477773
0.003465809908225636
0.0037783377309612057
0.004063215807082196
0.004332557195885684
0.004582331043937857
0.004801021787243556
0.004970728462240879
0.005084502210516375
0.005148198167813015
0.005191943243109423
0.005230551011744043
0.005260045265748513
0.00527575538431129
0.005274917865984506
0.005258160036251213
0.005224965440591438
0.005178049828225969
0.005117185767519509
0.00504987220817896
0.004985716953607745
0.004929875182380209
0.004866569170206851
0.004777962580879847
0.004667522803549475
0.004552777916315156
0.004435135539321028
0.004296971256234175
0.004142725680694275
0.003990631014767047
0.0038481057725499464
0.00369915977673594
0.003530822106850358
0.003348091629728274
0.0031785373570469935
0.0030528378316908187
0.00294249809951798
0.002796289401771799
0.00263438332464458
0.0025040496379753726
0.0024006990412386497
0.002297918498056371
0.0021813850587452965
0.0020709892118699513
0.002005269536760757
0.001984445106559003
0.0019445391565830375
0.0018815764642122936
0.0017891230998025166
0.0017039284049911506
0.0016367703910237263
0.001578705012475905
0.0015471067531091648
0.0015281920040135968
0.0015450747750598512
0.0014897153274901719
0.0014142932601196169
0.0013619742449890466
0.0013089862804651835
0.0012361976969340815
0.0011413349663899608
0.0010435329901811608
0.0010454841058822664
0.0009662200411151596
0.0008936841700442095
0.0007658198570279715
0.0005916198658485743
0.00036329508861861486
0.0001625038373368793
-6.736342272237563e-05
-0.00014193786649175947
-0.0003153017413448988
-0.00048175875754576255
-0.0006477575337389459
-0.000927783603227488
-0.0013582279671361483
-0.0015450296315024587
-0.0016362930188383916
-0.0017995805932344035
-0.0012770094944248099
-0.0019157657361243044
-0.0011460552399741237
-0.0021949290341109545
-0.0021153670681385247
-0.0013423614227485118
-0.0014118980980991581
-0.0020606224776649282
-0.0024709060890216973
-0.0030278762383533706
-0.002484828341050105
0.006297399139542309
-0.002563739670080533
-0.003668252405661609
-0.0024377059190722264
0.007343143220126464
-0.002235057879784225
-0.0026987797779837643
-0.001920852119869627
0.007583561288463967
-0.001749292920507911
0.0016995458075219486
-0.0016509145988509763
0.007868717637720353
-0.0015117307224466773
-0.002363450207958343
-0.0013926136137824442
0.0076672134242935395
-0.001213818811982331
-0.0011516576776553246
-0.0010272187949436863
0.008147860638052855
-0.000841474757439302
-0.00203048262366259
-0.0006107993143070067
0.007029698375458803
-0.00045240433646768667
0.0022046015078846
-0.0003338581079478772
0.007694577109986035
-0.00020986646230901593
-0.0017012113977508798
-8.101277452148441e-05
0.006223778573972221
7.521470188523409e-05
0.0005722216113768616
0.00023945482404909234
0.00726531488508557
0.0003998367688773443
-0.0013150354477690367
0.0005603242355642011
0.0058249237801830025
0.0006994952555019665
0.0023842463878134853
0.0008240977137235983
0.006204134786256822
0.0009234065389636247
-0.0009555988084403195
0.001020792017209762
0.005410234424662064
0.0011069443617173747
-0.0010553277937935769
0.0012072267569815112
0.006277394406414101
0.0013073388776103198
-0.0006279928343432164
0.0013947501915696923
0.0050661560627776984
0.0014725791502450253
0.0022752234386627895
0.0015417293964139311
0.00555834880349083
0.0016259111492140004
-0.0003619653715592129
0.0016979973777822717
0.0045939365406681455
0.0017664721518570697
-0.0009352468291619555
0.0017949262127898472
0.00509933260948819
0.0018291666039169747
-0.00015244138060854816
0.0018856344987935546
0.004238631502669701
0.0019669606462622783
0.002126668092655984
0.002044915485252928
0.004752150395010412
0.0021351602061203184
1.842599057650361e-05
0.0022348396649514977
0.0038158368411967945
0.0023280182838775103
-0.0008513391272790884
0.002408032913565685
0.004508981293708195
0.002480146131735982
0.00017936582047640214
0.0025783099144639555
0.003476325179375474
0.002696882470700323
0.001381487028512888
0.0028142358046276787
0.004102121448661453
0.0029326004210587075
0.00026264967923542783
0.00306291665197386
0.003664212732993294
0.003201653504809711
0.00045124860294080906
0.0033390605270975757
0.0038147421461344577
0.0034688775062286115
0.00032046058727217865
0.003606510228354894
0.0033377686901968347
0.0037480229002049685
0.0016730904640010107
0.0038805382337720974
0.0035132517251662706
0.003995511782442502
0.000419375461554495
0.004105526634186944
0.0028593928647014733
0.004217411912887559
-0.0007457362872751449
0.004335145908916005
0.0033467155392380306
0.004450704974091524
0.0005892588535774488
0.004559607080032108
0.002761619709211365
0.004659287478956848
0.0017420340520966195
0.0047452523891912905
0.003150248263548092
0.004818517150870239
0.0007255894263206752
0.004882841633828042
0.0027973942221688314
0.004935242033936565
0.0042102544702738364
0.004975319918992144
0.00339037485576346
0.005010041696210896
0.0008234079929489886
0.005046629036984843
0.0026217833120203036
0.005076851967815683
0.0017257241257787896
0.005079471398346599
0.003053303608621184
0.005031469133113455
0.0008875016490226329
0.004928560167047556
0.0023034821215008675
0.004784344324949489
-0.0005071568595336592
0.004611937234769752
0.002555455852796679
0.004421135738372669
0.000937222664185663
0.0042104279147760805
0.0021974146378130077
0.003961054782937123
0.0015363808468794005
0.003650518074871245
0.002286663527300485
0.0032744720771162223
0.0009956916019570447
0.00284124960077184
0.0022132567051980664
0.0023431968134446945
0.0005819148331772264
0.0017825965819078706
0.0023081930863948254
0.001382235154215213
0.0009731724038428285
0.0010820840140326545
0.0019091367104272024
0.0006226420766854087
0.0018242774798121239
6.691631051704164e-05
0.0019649067274805877
-0.000540759508114895
0.0010336910716046395
-0.0011249907885038286
0.0018612242849049246
-0.0016490080441586205
-0.0003171219456034446
-0.0021304756579487625
0.001652161156312362
-0.002596993120977225
0.0010332172927448335
-0.0030497206973131028
0.0015604933864307418
-0.0034665853061895693
0.002808785711220465
-0.00383218168354157
0.0016203136380984837
-0.004142273158166785
0.0010215100510752343
-0.0043931512989909445
0.0018912560466113723
-0.0045603230710640095
-0.0010830999266721727
-0.004622348441641493
0.001900332005401812
-0.004592668036642276
0.0010185434349778586
-0.004508296764086048
0.0018861260159741071
-0.004391763449548354
0.001960659910343108
-0.004240157359390356
0.0016640109806519477
-0.0040448646502326295
0.0010908850381257085
-0.0038195731047175052
0.0015411878383629494
-0.0035828307652790645
-0.0021188812040761266
-0.0033280545673233133
0.0014580731142298919
-0.0030279167096209977
0.0011664150618287085
-0.002681521083202226
0.001212516860299126
-0.002319794960163181
0.0024795210207187108
-0.001991159067079698
0.0010938173840525918
-0.0016999173439337695
0.0012871313463511081
-0.0014428833815832447
0.0008946559688418459
-0.0012278472581962034
0.003791905037309299
-0.0010735060636827525
0.000905087421504825
-0.0009796936151205678
0.0012385859379875376
-0.0009057357981645717
0.0011110689172814118
-0.0007992525075220906
0.0022890584648999827
-0.0006398902356607632
0.0010952818471110168
-0.0004768606661329475
0.001386307513263404
-0.0003444908650966113
0.0009111546881952301
-0.0002470079934024739
-7.903417700534415e-05
-0.00016651899269765755
0.0009699644209465238
-0.00010256272554249511
0.0014465718959203566
-7.827272157964166e-05
0.0008439786472762649
-0.000119354174867954
0.0025216789482606096
-0.00019416653552067388
0.0007515055078472337
-0.0001839020997769633
0.0012594541515434762
-0.00010181020927119147
0.00070417292587165
2.1687938942300156e-07
0.00032774449734053246
6.604619296734617e-05
0.0006481469398337036
0.00010860554094939257
0.0013970977294864907
0.00012861096684067244
0.000518470860972163
9.76478746702137e-05
0.0028503168090623526
-4.74588508371287e-05
0.00048295005890125996
-8.24463379635705e-05
0.0014907542280852505
1.4940821545180344e-05
0.0005789196576825414
8.855982419311689e-05
0.00011959922724845396
0.00011316978589441057
0.0005467990277623684
0.00013958237376991115
0.0015541899898785369
0.0001892729513196686
0.0005813993710828371
0.0002711650114548844
0.0026927204628247364
0.00026580916667798304
0.0005334044488961248
0.0002575241203463548
0.0016890671772936126
8.694472244348913e-05
0.00048352643907957654
6.299068386068755e-05
-0.0034771234099359332
0.0001666381055511952
0.000404967779314042
0.0003064127660802033
0.001956845965924966
0.00040362349674571117
0.0002906504500459749
0.0005596354895372854
0.0027019393100019833
0.0006824569150522247
0.00019062077152667985
0.0005278597727541375
0.0018400569108561135
0.0005118303052748736
0.0002087533813589788
0.0005108424944748398
0.00034965982332943154
0.0006369099130162331
0.00031580423946646254
0.0004724751505948436
0.0019831932505648556
0.000573213128569639
0.000331631718004477
0.0006443628110057553
0.001826297574074585
0.0007199202782098874
0.00027982471711252623
0.0008355806221514389
0.002064838599489981
0.0007836112716302795
0.00021803903815824808
0.0007034982403632692
0.0006846386265332929
0.0005721073582780009
0.00013913893856648085
0.0005845924572338812
0.0023007940615430494
0.0004952687247051622
3.1040464810465495e-05
0.0007074800863601547
0.0030632846097847347
0.0006895448577944607
-0.00012254004671769897
0.0009030589303012859
0.0019334722551935205
0.0012103380820074096
-0.00028999243750915573
0.0011548083539004194
0.0006698697740916121
0.0012442237756105352
-0.00045141265490402684
0.001050908588687544
0.002137565512898352
0.0011398671261693312
-0.0005380300119671739
0.0010904280068658547
0.006121859132041004
0.0012432418560920206
-0.0006197849943891608
0.0013137162394518509
0.0021545021917285957
0.0013480472642767014
-0.0007411436103268639
0.001386000430389826
-0.0012123954695895916
0.001446746761407845
-0.0009183159999044927
0.0014975482521886495
0.002613527842624206
0.001744693602814785
-0.0011456638563717854
0.0019808410214595317
0.0033265301801088504
0.002200895663092238
-0.0014145159512336625
0.0023419793694229593
0.0027127470888609344
0.002623973232422613
-0.0017217550183843814
0.0026977564318551236
0.0007668572061072938
0.002993782852550753
-0.002066349229343187
0.0031081001760282037
0.0029540905444335975
0.0032676302013431623
-0.0024352059444280186
0.0035689220592184504
-0.0020517006140408664
0.003653199387617013
-0.002786125364029002
0.00411290297909984
0.0030510243453878466
0.004175092120351
-0.0031059362683628416
0.004949216602613436
0.0007701090989095173
0.005180417986014916
-0.0033951103069479426
0.006006209795106914
0.0032608104423316616
0.006343932101703847
-0.0036693505804467254
0.007339923384227101
0.0026808399222320134
0.007793568777563556
-0.003927120328965369
0.008451435684456903
0.003367041715841763
0.008595560183660797
-0.004149607305068154
0.008221703610302751
0.0009663359059077116
0.00743789286931631
-0.004327587217444181
0.006740888377043816
0.002941108497055676
0.006587667892098519
-0.00446414436572283
0.005881708623657869
0.0025597378395454122
0.004996419638243169
-0.004565282668960157
0.00434755511715446
0.0030095759803748685
0.003684119444130978
-0.004604358176710749
0.002469193317892335
-0.0035121387524935472
0.0014974706133834732
-0.004564131432562253
0.0006510622533885798
0.0025661701996490894
-9.417786327843477e-06
-0.004429999087442561
-0.0006459689461836033
0.0029909061617921736
-0.001217607355492008
-0.004214405614835697
-0.0014794560696538886
0.0031313294721345844
-0.0017261609542360836
-0.0039328839084846025
-0.001464975102325666
0.0012258571442653966
-0.00124602731531772
-0.0035882610550244513
-0.0013224489901688661
0.003216235930731232
-0.001693686030276151
-0.003184157185159556
-0.0015438535071704595
0.0029309617410857684
-0.0019288066041369936
-0.0027444243282196508
-0.001805121105356905
0.0033482603371007584
-0.0019270234149436284
-0.0022867029845128214
-0.001988822519482225
0.0006382416421628008
-0.0020780676251517627
-0.0018123589782672528
-0.0018856660981678357
0.003402075889924582
-0.002192864140409457
-0.0012965831513306245
-0.002254037459760524
0.0023885439953074943
-0.0021638119206203992
-0.0007227921457052438
-0.002251339623219369
-0.00017240483411204785
-0.0020071608475329796
-0.00012735980486130335
-0.0018989967969337946
0.0012134336094638144
-0.0015507077163266505
0.00041525828417606723