# vtk DataFile Version 1.0
GRUMMP topologically 2D mesh
ASCII

DATASET UNSTRUCTURED_GRID
POINTS 6176 float
  1.0000000000000000   0.0000000000000000   0.0000000000000000
  0.9979736161243241   0.0002872981906159   0.0000000000000000
  0.9959038003591104   0.0005818082753016   0.0000000000000000
  0.9937894604158818   0.0008826109490225   0.0000000000000000
  0.9916311447855282   0.0011889740049165   0.0000000000000000
  0.9894256878168368   0.0015011074645448   0.0000000000000000
  0.9871732566523234   0.0018189104108560   0.0000000000000000
  0.9848739492731372   0.0021423104928037   0.0000000000000000
  0.9825241245750710   0.0024717658271048   0.0000000000000000
  0.9801244133260449   0.0028071825305054   0.0000000000000000
  0.9776732769852096   0.0031487906039340   0.0000000000000000
  0.9751690039483889   0.0034968357351786   0.0000000000000000
  0.9726117072730877   0.0038512643819321   0.0000000000000000
  0.9700001180350898   0.0042121148976419   0.0000000000000000
  0.9673332227148538   0.0045793859121594   0.0000000000000000
  0.9646079236541195   0.0049533708962095   0.0000000000000000
  0.9618249648196705   0.0053338679490647   0.0000000000000000
  0.9589807878895711   0.0057213439443832   0.0000000000000000
  0.9560767311296049   0.0061156062701256   0.0000000000000000
  0.9531120216710255   0.0065167463399167   0.0000000000000000
  0.9500819018783057   0.0069253778138591   0.0000000000000000
  0.9469876484068450   0.0073412143029309   0.0000000000000000
  0.9438286210030068   0.0077641908681895   0.0000000000000000
  0.9406001269296587   0.0081947829660712   0.0000000000000000
  0.9373041277084813   0.0086325757434285   0.0000000000000000
  0.9339368121646437   0.0090779560824189   0.0000000000000000
  0.9304976431076690   0.0095309377793780   0.0000000000000000
  0.9269838874379289   0.0099918267186165   0.0000000000000000
  0.9233965242394278   0.0104604374002928   0.0000000000000000
  0.9197323684717913   0.0109371203977286   0.0000000000000000
  0.9159901296799260   0.0114219111797446   0.0000000000000000
  0.9121662515702946   0.0119150917142392   0.0000000000000000
  0.9082612640703632   0.0124164093968364   0.0000000000000000
  0.9042711890176098   0.0129261849544228   0.0000000000000000
  0.9001985925103467   0.0134439182275261   0.0000000000000000
  0.8960367883853674   0.0139703538547480   0.0000000000000000
  0.8917881131106570   0.0145051006126241   0.0000000000000000
  0.8874465968544013   0.0150488093430172   0.0000000000000000
  0.8830132689405343   0.0156012428338051   0.0000000000000000
  0.8784843643309772   0.0161627200549514   0.0000000000000000
  0.8738585592690924   0.0167332093564690   0.0000000000000000
  0.8691331845657406   0.0173128340473851   0.0000000000000000
  0.8643080629784704   0.0179014022230632   0.0000000000000000
  0.8593790220315882   0.0184992057974382   0.0000000000000000
  0.8543443022105112   0.0191062525475961   0.0000000000000000
  0.8492020742372332   0.0197225542022908   0.0000000000000000
  0.8439504592998461   0.0203481184762133   0.0000000000000000
  0.8385847225217766   0.0209832807547837   0.0000000000000000
  0.8331043690503205   0.0216278714070098   0.0000000000000000
  0.8275075883744546   0.0222818740978654   0.0000000000000000
  0.8217896079901662   0.0229456038551552   0.0000000000000000
  0.8159499389768221   0.0236188617887649   0.0000000000000000
  0.8099850870934132   0.0243017702717010   0.0000000000000000
  0.8038929332928342   0.0249942623102002   0.0000000000000000
  0.7976697970229181   0.0256964297179088   0.0000000000000000
  0.7913134730328051   0.0264081777898121   0.0000000000000000
  0.7848218596203610   0.0271293903098903   0.0000000000000000
  0.7781898173908960   0.0278602762976724   0.0000000000000000
  0.7714169256365310   0.0286005013921829   0.0000000000000000
  0.7644979701754163   0.0293502351726533   0.0000000000000000
  0.7574308659438134   0.0301093068082177   0.0000000000000000
  0.7502135053150701   0.0308775557618342   0.0000000000000000
  0.7428404612557281   0.0316551512399728   0.0000000000000000
  0.7353096164115749   0.0324418730798164   0.0000000000000000
  0.7276172963491144   0.0332375368705936   0.0000000000000000
  0.7197598859172740   0.0340418579688506   0.0000000000000000
  0.7117355290536627   0.0348543282856948   0.0000000000000000
  0.7035389878799579   0.0356747811793425   0.0000000000000000
  0.6951650952820780   0.0365031090698871   0.0000000000000000
  0.6866122709923126   0.0373388258653197   0.0000000000000000
  0.6778754950330185   0.0381817369178559   0.0000000000000000
  0.6689534383202176   0.0390312029136988   0.0000000000000000
  0.6598376964403885   0.0398871771799410   0.0000000000000000
  0.6505290121117546   0.0407486821288951   0.0000000000000000
  0.6410191910005383   0.0416153892989160   0.0000000000000000
  0.6313056496470314   0.0424862165552765   0.0000000000000000
  0.6213823079172336   0.0433602824420315   0.0000000000000000
  0.6112489281649386   0.0442362457646169   0.0000000000000000
  0.6008963123926909   0.0451137308907019   0.0000000000000000
  0.5903211292528141   0.0459917803130241   0.0000000000000000
  0.5795184839365645   0.0468692540951747   0.0000000000000000
  0.5684857150099230   0.0477443424041717   0.0000000000000000
  0.5572148862675538   0.0486154402631608   0.0000000000000000
  0.5457024491672809   0.0494805599680832   0.0000000000000000
  0.5339780836677636   0.0503353194116202   0.0000000000000000
  0.5219860728183490   0.0511813660693644   0.0000000000000000
  0.5101253307512127   0.0519891081313360   0.0000000000000000
  0.4985043971600128   0.0527514649709832   0.0000000000000000
  0.4871181100865982   0.0534694955937708   0.0000000000000000
  0.4759663238182478   0.0541439373921026   0.0000000000000000
  0.4650424897306392   0.0547759224024376   0.0000000000000000
  0.4543414694194311   0.0553665338532900   0.0000000000000000
  0.4438615277983380   0.0559167464857066   0.0000000000000000
  0.4335966445555638   0.0564277439227250   0.0000000000000000
  0.4235422171719039   0.0569005367499369   0.0000000000000000
  0.4136931783754329   0.0573360485787389   0.0000000000000000
  0.4040479201781875   0.0577350333573017   0.0000000000000000
  0.3946007843384192   0.0580984587592611   0.0000000000000000
  0.3853459130056055   0.0584273588583778   0.0000000000000000
  0.3762828394437238   0.0587225582688298   0.0000000000000000
  0.3674052759622001   0.0589850521268143   0.0000000000000000
  0.3587104110044708   0.0592156767487264   0.0000000000000000
  0.3501952433465900   0.0594152538281565   0.0000000000000000
  0.3418548081050912   0.0595846279097528   0.0000000000000000
  0.3336858663230149   0.0597246577421592   0.0000000000000000
  0.3256868701986138   0.0598362486465025   0.0000000000000000
  0.3178507769372301   0.0599203474438374   0.0000000000000000
  0.3101776523444911   0.0599777679649948   0.0000000000000000
  0.3026620994593082   0.0600092896252224   0.0000000000000000
  0.2953022098091474   0.0600156089816429   0.0000000000000000
  0.2880942515540157   0.0599974067416477   0.0000000000000000
  0.2810344582773878   0.0599553507162620   0.0000000000000000
  0.2741224198462300   0.0598902308958287   0.0000000000000000
  0.2673508102792782   0.0598027829062179   0.0000000000000000
  0.2607208372897423   0.0596938009430880   0.0000000000000000
  0.2542268737219818   0.0595639532054747   0.0000000000000000
  0.2478699323930078   0.0594139942796022   0.0000000000000000
  0.2416426526986943   0.0592444560641495   0.0000000000000000
  0.2355443386744786   0.0590559928562533   0.0000000000000000
  0.2295742285057687   0.0588492600763349   0.0000000000000000
  0.2237267309732288   0.0586247739586633   0.0000000000000000
  0.2180011540540604   0.0583832555000465   0.0000000000000000
  0.2123936096745636   0.0581252700988444   0.0000000000000000
  0.2069018249031851   0.0578514118247249   0.0000000000000000
  0.2015265925874962   0.0575624139311738   0.0000000000000000
  0.1962639217171782   0.0572587327640815   0.0000000000000000
  0.1911098627978642   0.0569407701058159   0.0000000000000000
  0.1860635373512509   0.0566090833477142   0.0000000000000000
  0.1811225555455632   0.0562641183158228   0.0000000000000000
  0.1762831066659017   0.0559062017034564   0.0000000000000000
  0.1715472965099615   0.0555361405439852   0.0000000000000000
  0.1669099315072494   0.0551541804881659   0.0000000000000000
  0.1623702175183220   0.0547608759938091   0.0000000000000000
  0.1579259317985442   0.0543566416724963   0.0000000000000000
  0.1535748664842349   0.0539418626674859   0.0000000000000000
  0.1493147619729656   0.0535168899310313   0.0000000000000000
  0.1451447283274916   0.0530821904592715   0.0000000000000000
  0.1410625235604109   0.0526380756497570   0.0000000000000000
  0.1370659530359299   0.0521848322503466   0.0000000000000000
  0.1331567814638518   0.0517231967360234   0.0000000000000000
  0.1293276562313525   0.0512528455259629   0.0000000000000000
  0.1255804504092525   0.0507745502773552   0.0000000000000000
  0.1219131281255899   0.0502885988465475   0.0000000000000000
  0.1183237015509818   0.0497952534010120   0.0000000000000000
  0.1148102318092792   0.0492947513229479   0.0000000000000000
  0.1113720175725520   0.0487874812015910   0.0000000000000000
  0.1080070759532941   0.0482736140267307   0.0000000000000000
  0.1047146335147149   0.0477534816268928   0.0000000000000000
  0.1014927513745349   0.0472272179600503   0.0000000000000000
  0.0983395479756496   0.0466949369878610   0.0000000000000000
  0.0952554508934213   0.0461571322873805   0.0000000000000000
  0.0922363866432952   0.0456135046927440   0.0000000000000000
  0.0892828700951544   0.0450645654218522   0.0000000000000000
  0.0863942718297865   0.0445106297655928   0.0000000000000000
  0.0835678320075330   0.0439515803137779   0.0000000000000000
  0.0808019575920066   0.0433874837688950   0.0000000000000000
  0.0780971710598979   0.0428188278852694   0.0000000000000000
[...]
POINT_DATA 6176
SCALARS continuity float
LOOKUP_TABLE default
0.0025983182657430873
-0.0016026944145002373
-0.0010870456790583276
-0.0008626766334905522
-0.0011805791808584478
-0.0013646016209521257
-0.0014713754056912985
-0.0015829129225459178
-0.0016664529877709923
-0.0017245465392606535
-0.0017807403019231651
-0.001841879012690706
-0.0018823097789179334
-0.001917529664537363
-0.0019362100084644107
-0.00194618930494241
-0.0019739385492524076
-0.002002701147017548
-0.0020063183363576193
-0.0020323377850602438
-0.0020013740732032475
-0.0019608581194947485
-0.0018957977192865438
-0.0017993818283959914
-0.0017231160934290432
-0.001666875014892461
-0.0016076929898567248
-0.001524337715451891
-0.001438996191999994
-0.001343018577326545
-0.0012340621875055894
-0.0011102374239382977
-0.0009752852606171162
-0.0008364667229423739
-0.0007167501484838457
-0.000619891453082196
-0.0005342183325982266
-0.0004443472407280611
-0.0003541882734279419
-0.00025473343590765604
-0.00013814489249712615
-1.1102321646708149e-05
0.00011404285164867762
0.00021613709920818524
0.0002976597972431667
0.00037787314270440296
0.00047112615925583637
0.0005921169186583867
0.0007449123133436165
0.0009155012156853917
0.0010783813989626734
0.0012115316706225753
0.0013110403889610943
0.0013993706535761466
0.0015046184998537668
0.001653242094155294
0.0018483573704707475
0.0020661024656095915
0.0022796341300778235
0.0024680602596097033
0.002614953692280457
0.002732263386602768
0.0028617355246656046
0.0030341516926153294
0.0032425117834537177
0.0034588129703767003
0.0036669980340163742
0.0038731353652250483
0.004083297393793924
0.004284262588758163
0.004449471174964076
0.0045779524303800265
0.004706310794076932
0.004875770702298896
0.0050912693814390685
0.005317191628505726
0.005521615610953627
0.005696875535433681
0.005845673373702308
0.005980532592470223
0.006126667696365262
0.006300151609560678
0.006494361934197986
0.006695618288214576
0.0069158552873882706
0.0073018935000239565
0.007530052083472501
0.007605197809954623
0.00774822359052317
0.00791361791063162
0.008048279724336766
0.00814320437426126
0.008215792324807215
0.008281683232286464
0.0083372745301934
0.008368075448746052
0.008367859132703794
0.008338636124122905
0.008278688420323548
0.008177483727458145
0.008024544906154809
0.00782764173683383
0.007602179502554835
0.007354418593396227
0.007077278229586544
0.006765938685690531
0.006430301217870044
0.00608054467666126
0.005717184279688616
0.0053369547517786095
0.004947858286417245
0.004570894070571967
0.004217006580386682
0.0038845043582649654
0.0035670421120690813
0.0032677027104805897
0.0029845685088720937
0.0027113175087750997
0.002443746879210108
0.0021769314748720826
0.0019106813697715274
0.001653644712709536
0.001411794373529677
0.0011879632006734505
0.0009731298924399448
0.0007577384187905293
0.0005260025963909658
0.00030040452826431607
0.00010260317426468235
-9.452691690781207e-05
-0.00029590066041741486
-0.0005023387562266279
-0.0006820217099956296
-0.0008470837941727871
-0.0010475770499565038
-0.0012740004517583698
-0.0013628314832880974
-0.00144686153102784
-0.0016279394957936265
-0.0017892829607103861
-0.0019141175173690345
-0.0020198560207283656
-0.002115447181880612
-0.0022591906812223046
-0.0024618408999977043
-0.0025057622204229277
-0.0025310347783318934
-0.0026057808250312575
-0.002727365375521284
-0.0028224248357300147
-0.002873100491428852
-0.0029497885934199105
-0.0030646559938943834
-0.0029949808094592045
-0.0031999274290328244
-0.0031751312783357645
-0.003220449089275085
-0.003180390221674316
-0.0033009604320386513
-0.0033528329744518075
-0.003325168939929441
-0.0033080611578570522
-0.003165719689919961
-0.003300616156083882
-0.0031310332661588767
-0.0030983549640216964
-0.0030240095520797116
-0.0030105783593733365
-0.002943594538994612
-0.002842022215173048
-0.002682344854408961
-0.002699418765885436
-0.0025814241984359262
-0.002508099599499771
-0.0023108510086983468
-0.0022160603327811244
-0.0020271721980495917
-0.0018695445717456726
-0.0017702929442460734
-0.0014613459320285385
-0.0013846855621583354
-0.0010246593994874909
-0.0010848118265879456
-0.0007456939821980635
-0.0007824824844549236
-0.0003657216900617497
-0.00036716805891716836
0.00012393028210078358
0.00019643476336634344
0.0007663323535591343
0.0007392449999991618
0.0011439817615684603
0.0014186701465534616
0.001642866100467888
0.0018816998844877948
0.002076170416960157
0.0023731751436421498
0.0026020931039599494
0.0029182770247316984
0.003184516292277698
0.0035669094239881693
0.0036238193451648007
0.003349573478791526
0.0029539773581905996
0.003286302348016545
0.0036810843944440987
0.0028763039390041867
0.001918328105821667
0.0011786404049610735
0.0005461068472223761
-0.0011731527661004056
-0.002786351648673207
-0.0033456747599027916
-0.0040433745078648445
-0.004811109423106195
-0.005662150906172727
-0.0067395847117409065
-0.0063555189177289815
-0.006889435578627674
-0.006621376400244635
-0.006801207515783241
-0.006907169479127528
-0.00660373180473805
-0.006040079868395679
-0.0056218979882542335
-0.005143548614110606
-0.004975515422056587
-0.00483159374656554
-0.004513395991729508
-0.004343870320060778
-0.0038319973384278163
-0.003566226399087131
-0.0030009062098896254
-0.0029175392203910637
-0.0022173834446238194
-0.002153799606576473
-0.0015915814886092291
-0.0015832580310538727
-0.001101316858844179
-0.0010894591952953824
-0.0006472262999824425
-0.0006325347723430503
-0.00024366390912020417
-0.00023394063191423234
0.00010135315789475847
7.906770124151963e-05
0.000391496468165873
0.00033884826650068165
0.0005465791212650858
0.0007166181333584374
0.0008649349634753922
0.0009839050804651445
0.0012214351195003244
0.0013151722918432107
0.001440426173451544
0.0015343268599858283
0.0016517835936496468
0.0017226165274698921
0.0018033304018979029
0.0018391902332565572
0.0017638290539714282
0.001867144135868075
0.001939341617781721
0.0019804254457237496
0.002020696732790787
0.0020574759205444844
0.002141523569799273
0.00215521515533064
0.002170625557392057
0.0021574467259947217
0.0020053666839417394
0.002009939325059236
0.0020358370676820995
0.002043907394136751
0.00204082799065406
0.0020220397258850892
0.001967107703782397
0.0019090687561463086
0.0018157081784014619
0.001745110927065817
0.001680299611984479
0.0016194113031706531
0.0015362255475728163
0.0014370903589639786
0.0013267178182137318
0.0012196526605337877
0.001111208146041644
0.0009523041040405068
0.0007769478230934923
0.0005809458373370106
0.00042521422208161795
0.00028818743112735574
0.00013306259279436902
-4.3199704977418176e-05
-0.00023226431657744526
-0.0004563404739986045
-0.000713297270529323
-0.0009750001122433985
-0.001211680829205974
-0.0014258975739552173
-0.0016448884815454272
-0.0018782402669577077
-0.002126851630827399
-0.0023979094058942277
-0.002699127766738141
-0.003024879766391815
-0.0033575096917124628
-0.0036919497710232512
-0.00404220576823381
-0.004419198649767741
-0.004829067587159684
-0.005272884824370387
-0.005747939020815471
-0.006249934167412327
-0.006776159958395267
-0.007316492472720693
-0.007850481352214903
-0.008359280616266822
-0.008830518847888963
-0.009254980804371697
-0.009625740125858205
-0.009939984004208209
-0.010193377818468767
-0.010388887256602105
-0.010526369120299901
-0.010604370321793507
-0.010619171074058187
-0.0105706762883588
-0.010461252936180956
-0.010297879026202925
-0.010090925480498699
-0.00984921844124914
-0.0095758496795862
-0.009274619983881922
-0.008951432110915985
-0.008614671524636455
-0.008286020284010895
-0.007980583082759243
-0.007501701779428366
-0.006986082919859168
-0.006663868721671057
-0.006358146137515329
-0.006074792771153317
-0.005825615767568217
-0.005606633578990262
-0.005404221964124624
-0.005207975278087044
-0.005014756943550962
-0.004826853405253515
-0.004649309670675552
-0.004496851347640076
-0.004378817545807604
-0.004277139743484094
-0.0041599553715294954
-0.004024807302948374
-0.0038851643359836944
-0.003748875317512743
-0.003609516862848961
-0.0034622259348434424
-0.0033233265404084525
-0.003216203025945909
-0.0031364743891044307
-0.003055622435654976
-0.002954019561535339
-0.002836367399485906
-0.0027143673231556833
-0.0025940596405324944
-0.0024910454615877675
-0.0024249296769175348
-0.0023840409231044675
-0.0023253407818813344
-0.0022321250985291924
-0.002128844039103072
-0.002030489053245771
-0.0019290824523093906
-0.001814119557651453
-0.001698980690355575
-0.001609234799344718
-0.0015451240128124277
-0.0014783627690844617
-0.0013803191912319572
-0.0012547951808197261
-0.0011279596521436854
-0.0010075832586921693
-0.0008835876098090941
-0.0007615610850723503
-0.0006594975255945158
-0.0005763935813435844
-0.0004991759743650579
-0.00042007281660372454
-0.0003226089466815188
-0.00020277482853222757
-7.608859221777914e-05
3.802790477463798e-05
0.00013458424459195255
0.0002174561074100342
0.0003071072400387482
0.000381808348573085
0.0004801136658996647
0.0006076191252308002
0.0007159091438373322
0.0008166680780518466
0.0009134198959631311
0.0010024811153959562
0.001077669458069337
0.0011096604671535246
0.0011809608813777434
0.00125257877062095
0.0013461392029609637
0.0014405974380273772
0.0015205460682166131
0.0015858163636695557
0.0016346305708167513
0.001661320741979137
0.0017101785732350874
0.0017575836163166705
0.001796001209044477
0.0018170296206677984
0.0018056679778614775
0.0017352706365922365
0.001500776722349622
0.001621685714587122
0.002809886000485973
-0.0004558937857260415
0.0015894741115105616
0.0007986678979795326
0.0005025186096689001
0.0006093132375583227
0.0006950786742353403
0.00014359768845468207
-0.0005136342141523062
0.004946768396202682
-0.0008580699669622744
0.004744176765092232
-0.001053366404463518
0.007822506433255109
-0.0012451398404462089
0.00531291241387071
-0.0013831777249631693
0.004565588095855658
-0.0014654740122598874
0.005345271062489472
-0.001548477141001054
0.0035126907670837123
-0.0016285501213375699
0.0053350312452273
-0.001691570466392541
0.0041783091122552
-0.001761252181131365
0.0047738605869526215
-0.0018114063765363037
0.004814704558525647
-0.0018632695087623353
0.00488899388121885
-0.0018956505616468061
0.003780097807110293
-0.0019074613149382077
0.004181255133999478
-0.0019095050035940627
0.003072975212447624
-0.001941330104932548
0.00424070596379193
-0.0019680015549185925
0.0034174495018114747
-0.0020106866473530325
0.0035770527874802007
-0.0019918179544280244
0.0035582318836209666
-0.001968931944886775
0.003659497308976819
-0.0019256577169349226
0.0030365107336281115
-0.0018518108674631037
0.0030821079685296967
-0.001748374653469767
0.002499953332715668
-0.0016844339796387008
0.00307797612156171
-0.0016184962198698837
0.002679930646027716
-0.0015716872836315434
0.0025092104017347943
-0.0014817671263539615
0.004705849998438094
-0.0013947343472217983
0.0024070153642199005
-0.001296751985466329
0.0023362590480292575
-0.0011843005938105017
0.001850255955458298
-0.0010573161300722078
0.002082269096086877
-0.0009182124629497615
0.0017544383461058559
-0.0007872112675031856
0.002031643583805245
-0.0006753866469297837
0.001349509073014018
-0.0005784553129883173
0.005693172896680968
-0.00048734712515107956
0.0010142301473977356
-0.0003967381999412408
0.0017561392363890616
-0.000304830089095611
0.0007348850710035903
-0.00020023182043275197
0.001744411211230722
-8.219886323650603e-05
0.00042058514094499104
4.478670654142663e-05
0.0015036985719441634
0.00015972904624217467
0.0002562801605510633
0.00025321303396705813
0.004454738254281034
0.00033402583468015036
-8.761457576459218e-05
0.00041667027983080903
0.0012152750450141279
0.0005163968402868206
-0.00017457163232604877
0.0006476303803043574
0.0015668444453944815
0.0008054269567550871
-0.00047720778203963303
0.0009730355360272857
0.0009743059249913952
0.001126610235972168
-0.00037504116609429387
0.0012462462398891343
0.003938823199468413
0.0013395868568145772
-0.0010616167704616023
0.00142850814781847
0.0006768979519376359
0.0015428346010403807
-0.0007837720646660305
0.0017039979547235865
0.0014340396525931132
0.0019042620883597153
-0.0014555229331468646
0.0021209282722138177
0.0005011111282862343
0.0023281934117556032
-0.0013507471488927744
0.0025025960044702342
0.00435282535573299
0.0026362744008741382
-0.0016073834222513003
0.002753052581205071
0.0002941359537772219
0.0028934244336906397
-0.0016808371444610583
0.0030759898504629547
0.0010907834634220211
0.0032847509140648394
-0.001919189166032671
0.003496450815374273
0.0001440427519970349
0.0037036065956463685
-0.001992360368925446
0.00391276309674664
0.006328944275051544
0.004123057505182413
-0.002264929253729049
0.004312716574299083
-3.866177112511949e-05
0.004460782032073611
-0.002252526723553201
0.0045794934312925455
0.0007669846406044093
0.004713675371486202
-0.0025006575739431615
0.004897202928244425
-0.00019469943899703266
0.005117159324214959
-0.0024244302239421604
0.005335727484748716
0.0041398660088468936
0.005529002914054865
-0.0029293326335569493
0.00569193006060622
-0.00034056769363318415
0.0058290748610926296
-0.002670634761111786
0.005958198187385664
0.0004978556303264136
0.006107938357849697
-0.0030318349907010418
0.0062857514622911784
-0.0005486054037761894
0.006477712859248038
-0.0027321551699984537
0.006673572829722168
0.004018703103142621
0.006891189643238423
-0.002709725701750864
0.007250537477766733
-0.0007333488471905597
0.007491347169017744
-0.0030263548636955133
0.007546702299089188
0.00017711295042886158
0.007680647624483852
-0.0030980510715309527
0.00784784758953128
-0.0008757921346034859
0.007988588108405376
-0.003249809270292094
0.008087002057382097
0.003992314692190178
0.008157144471927563
-0.003299396281843742
0.008217288347389823
-0.0010893393281436823
0.008267361427952626
-0.00342059524406713
0.008296854010024442
-9.125087748915875e-05
0.00829444919349685
-0.0033977672047353314
0.008262626504186665
-0.0011696574993146688
0.008201790004137987
-0.003533290333847297
0.008102564615621602
0.005717574812421942
0.007953773807001924
-0.0034039541140728174
0.0077574872689065945
-0.0012852870023093922
0.007526807889697015
-0.0032435899213570075
0.007271581626827249
-0.00010697241794690689
0.0069885796151762285
-0.00323172986362787
0.006673220693547739
-0.0013317613686193055
0.006333672002488725
-0.003284764200018781
0.005978949947015594
-0.004325953871744281
0.00561140490400364
-0.0032168604385674543
0.005227970409311509
-0.0014235500261450449
0.004833396060041912
-0.0031534265338220516
0.004443501779365998
-4.456983186032975e-05
0.0040744611285934915
-0.003140651943197333
0.003726576912363852
-0.001567495248343074
0.0033967368076715963
-0.003130556808876215
0.0030847906232945024
0.001264239687389273
0.0027937288027077584
-0.0031084498838436806
0.002516761328500405
-0.0017425995389848817
0.002242607190662754
-0.003091922090474126
0.001967101466793366
-0.00024789750657994505
0.0016872668561402069
-0.002926101553217578
0.0014158923440074085
-0.0017123161265485663
0.0011593190146121592
-0.002880547106624936
0.0009206903941524765
0.0037692432125086732
0.0006939127253676686
-0.0027800862534723045
0.0004701225645670776
-0.0018308057607619678
0.00023911478576571892
-0.0026481952563164016
1.6815416139418552e-05
-0.0005205371404918278
-0.0001803468909064118
-0.002576675924236691
-0.0003949547110762884
-0.001961872462493887
-0.0006148016407496064
-0.002492659321246348
-0.0008369949514816275
0.0041618499567148545
-0.0010285050072315093
-0.0023913947669986823
-0.001197121852659636
-0.001990027217342536
-0.001408475225439249
-0.0022527062661946225
-0.0016095828447500256
-0.0006190230373669312
-0.0017410874144214974
-0.0021971722695749932
-0.0018440093794057561
-0.0020343834171240756
-0.0019964631624201884
-0.0020586087592292354
-0.0021657710565926853
0.003556740014922442
-0.002302532198138922
-0.0019307263799763436
-0.0024199307294100613
-0.002037364698239669
-0.0025216875229816054
-0.0017731975398294695
-0.0026831717403777763
-0.0007434473143630803
-0.0027743546846178803
-0.0015698089996879847
-0.002865914134426527
-0.0020382040530668383
-0.0029608360608176895
-0.0014351391701852671
-0.002989874943427236
0.007773186625920716
-0.0030783485541204286
-0.0012551879018832405
-0.003185393864199715
-0.0020913723984615036
-0.0032379748385662436
-0.0011144903824712167
-0.003340992300568441
-0.0010719334273185611
-0.0034211343864646074
-0.0009248747063303291
-0.0035053486422021414
-0.002174153607628448
-0.0035446323323761785
-0.0007732503476620795
-0.003606425507272381
0.003320541303085888
-0.0036707458683175884
-0.0005354928150965769
-0.0035576108191820504
-0.002017495819093136
-0.0036050507112187404
-0.0003174994376954876
-0.003643717951436868
0.003266091915923277
-0.003630283361605754
-6.920553038651944e-05
-0.0036231543123317555
-0.0022503832975155277
-0.003606603732875048
0.00013188234444158617
-0.003458225191957168
0.0038920063909502083
-0.0034409338474944975
0.0003443398303928063
-0.0034277940804529946
-0.002420811050774887
-0.003288856739517292
0.0005776972109559735
-0.0033288413182460796
-0.001065790370165494
-0.003184072480814757
0.0008377403593700742
-0.0031463517682949376
-0.002444177967133474
-0.0029581195689001518
0.0010985069794859977
-0.0029939435316116165
0.0030335837014515326
-0.0027989794173764863
0.0013723385655993131
-0.002767246253090195
-0.002468203975715816
-0.002501130659450081
0.0016268260655746387
-0.0024420823210772958
0.0017381832563136766
-0.0021777643569473775
0.0019069868730258717
-0.002145839632453903
-0.002354848340355191
-0.0017914912704940454
0.0021906424406884064
-0.0017484164145303723
0.0058775245261584045
-0.001382028633977322
0.0024862056901959993
-0.0013916051508354166
-0.0023635872641459754
-0.001049850684232194
0.0028008592563144217
-0.0010919567835669477
-0.0009696327276610666
-0.0006764994316204334
0.0031376063410525922
-0.0006888871298740388
-0.0023973621288804884
-0.00020973549317796414
0.0034949088286311287
-0.00017468730650361728
0.00282906398532893
0.000405395223925608
0.0038731579986550596
0.0004981998375946007
-0.002036137700672121
0.000923682405220294
0.004266565873700451
0.0011037226193051765
-0.004620926979259953
0.0014442312341652092
0.004661710800817549
0.0016627673027200555
-0.00207353269874934
0.0019769367430486446
0.0050541996572793825
0.002193741426121084
0.004007322427079568
0.002508093342270004
0.005439001560193895
0.0028441869311894943
-0.0023075004341962927
0.0031948921774167644
0.00581145627212612
0.003653461028912299
-0.0006758582526607444
0.004048270499304716
0.006170525548705434
0.00443345449676639
-0.002706235046657613
0.004414943750571845
0.006503681601824927
0.004269821527067943
0.002742831938663471
0.004349274065665936
0.006805245702606283
0.004420230666860278
-0.0023507694962365856
0.003973029797365168
0.007076642791852072
0.0031438515770823247
-0.0007567289096596637
0.002225683025466729
0.007319006969066531
0.0015114119977534292
-0.0025611394867254412
-0.00046140605216506527
0.0075242410238519335
-0.0023740504271676133
0.008574987150276117
-0.0031911135589067587
0.007686684326329202
-0.004081567890512315
-0.002406559568692047
-0.00518490102607188
0.007807137166667555
-0.006155084608191245
-0.0009013339772346932
-0.0069660143330574475
0.007890515092417907
-0.007316487074122592
-0.002111731938989842
-0.007653773787334452
0.007943474877907272
-0.0077244694240240835
0.0024871581813093787
-0.007734348047811441
0.007961433468571075
-0.007694502837774408
-0.0019086025691758247
-0.007137438826355481
0.007947296142488429
-0.006648479476851229
-0.0009727910762070888
-0.005984803628697901
0.00791225599567316
-0.0055486626596201365
-0.001689527772869313
-0.0052803739094763255
0.007865742636312314
-0.004970607277749197
0.004115455332953543
-0.004703778112134755
0.007808965425061318
-0.004331221074920684
-0.0015355439350556034
-0.003969711952735631
0.0077267542753098935
-0.0035343931467353073
-0.0012205745004266043
-0.003264060021375737
0.007605404990403623
-0.002797226741614585
-0.0012359439203397373
-0.002405204144987198
0.007455582525961217
-0.00203582769475089
0.0023656774733947896
-0.0017140836497897384