# vtk DataFile Version 1.0
GRUMMP topologically 2D mesh
ASCII

DATASET UNSTRUCTURED_GRID
POINTS 6176 float
  1.0000000000000000   0.0000000000000000   0.0000000000000000
  0.9979736161243241   0.0002872981906159   0.0000000000000000
  0.9959038003591104   0.0005818082753016   0.0000000000000000
  0.9937894604158818   0.0008826109490225   0.0000000000000000
  0.9916311447855282   0.0011889740049165   0.0000000000000000
  0.9894256878168368   0.0015011074645448   0.0000000000000000
  0.9871732566523234   0.0018189104108560   0.0000000000000000
  0.9848739492731372   0.0021423104928037   0.0000000000000000
  0.9825241245750710   0.0024717658271048   0.0000000000000000
  0.9801244133260449   0.0028071825305054   0.0000000000000000
  0.9776732769852096   0.0031487906039340   0.0000000000000000
  0.9751690039483889   0.0034968357351786   0.0000000000000000
  0.9726117072730877   0.0038512643819321   0.0000000000000000
  0.9700001180350898   0.0042121148976419   0.0000000000000000
  0.9673332227148538   0.0045793859121594   0.0000000000000000
  0.9646079236541195   0.0049533708962095   0.0000000000000000
  0.9618249648196705   0.0053338679490647   0.0000000000000000
  0.9589807878895711   0.0057213439443832   0.0000000000000000
  0.9560767311296049   0.0061156062701256   0.0000000000000000
  0.9531120216710255   0.0065167463399167   0.0000000000000000
  0.9500819018783057   0.0069253778138591   0.0000000000000000
  0.9469876484068450   0.0073412143029309   0.0000000000000000
  0.9438286210030068   0.0077641908681895   0.0000000000000000
  0.9406001269296587   0.0081947829660712   0.0000000000000000
  0.9373041277084813   0.0086325757434285   0.0000000000000000
  0.9339368121646437   0.0090779560824189   0.0000000000000000
  0.9304976431076690   0.0095309377793780   0.0000000000000000
  0.9269838874379289   0.0099918267186165   0.0000000000000000
  0.9233965242394278   0.0104604374002928   0.0000000000000000
  0.9197323684717913   0.0109371203977286   0.0000000000000000
  0.9159901296799260   0.0114219111797446   0.0000000000000000
  0.9121662515702946   0.0119150917142392   0.0000000000000000
  0.9082612640703632   0.0124164093968364   0.0000000000000000
  0.9042711890176098   0.0129261849544228   0.0000000000000000
  0.9001985925103467   0.0134439182275261   0.0000000000000000
  0.8960367883853674   0.0139703538547480   0.0000000000000000
  0.8917881131106570   0.0145051006126241   0.0000000000000000
  0.8874465968544013   0.0150488093430172   0.0000000000000000
  0.8830132689405343   0.0156012428338051   0.0000000000000000
  0.8784843643309772   0.0161627200549514   0.0000000000000000
  0.8738585592690924   0.0167332093564690   0.0000000000000000
  0.8691331845657406   0.0173128340473851   0.0000000000000000
  0.8643080629784704   0.0179014022230632   0.0000000000000000
  0.8593790220315882   0.0184992057974382   0.0000000000000000
  0.8543443022105112   0.0191062525475961   0.0000000000000000
  0.8492020742372332   0.0197225542022908   0.0000000000000000
  0.8439504592998461   0.0203481184762133   0.0000000000000000
  0.8385847225217766   0.0209832807547837   0.0000000000000000
  0.8331043690503205   0.0216278714070098   0.0000000000000000
  0.8275075883744546   0.0222818740978654   0.0000000000000000
  0.8217896079901662   0.0229456038551552   0.0000000000000000
  0.8159499389768221   0.0236188617887649   0.0000000000000000
  0.8099850870934132   0.0243017702717010   0.0000000000000000
  0.8038929332928342   0.0249942623102002   0.0000000000000000
  0.7976697970229181   0.0256964297179088   0.0000000000000000
  0.7913134730328051   0.0264081777898121   0.0000000000000000
  0.7848218596203610   0.0271293903098903   0.0000000000000000
  0.7781898173908960   0.0278602762976724   0.0000000000000000
  0.7714169256365310   0.0286005013921829   0.0000000000000000
  0.7644979701754163   0.0293502351726533   0.0000000000000000
  0.7574308659438134   0.0301093068082177   0.0000000000000000
  0.7502135053150701   0.0308775557618342   0.0000000000000000
  0.7428404612557281   0.0316551512399728   0.0000000000000000
  0.7353096164115749   0.0324418730798164   0.0000000000000000
  0.7276172963491144   0.0332375368705936   0.0000000000000000
  0.7197598859172740   0.0340418579688506   0.0000000000000000
  0.7117355290536627   0.0348543282856948   0.0000000000000000
  0.7035389878799579   0.0356747811793425   0.0000000000000000
  0.6951650952820780   0.0365031090698871   0.0000000000000000
  0.6866122709923126   0.0373388258653197   0.0000000000000000
  0.6778754950330185   0.0381817369178559   0.0000000000000000
  0.6689534383202176   0.0390312029136988   0.0000000000000000
  0.6598376964403885   0.0398871771799410   0.0000000000000000
  0.6505290121117546   0.0407486821288951   0.0000000000000000
  0.6410191910005383   0.0416153892989160   0.0000000000000000
  0.6313056496470314   0.0424862165552765   0.0000000000000000
  0.6213823079172336   0.0433602824420315   0.0000000000000000
  0.6112489281649386   0.0442362457646169   0.0000000000000000
  0.6008963123926909   0.0451137308907019   0.0000000000000000
  0.5903211292528141   0.0459917803130241   0.0000000000000000
  0.5795184839365645   0.0468692540951747   0.0000000000000000
  0.5684857150099230   0.0477443424041717   0.0000000000000000
  0.5572148862675538   0.0486154402631608   0.0000000000000000
  0.5457024491672809   0.0494805599680832   0.0000000000000000
  0.5339780836677636   0.0503353194116202   0.0000000000000000
  0.5219860728183490   0.0511813660693644   0.0000000000000000
  0.5101253307512127   0.0519891081313360   0.0000000000000000
  0.4985043971600128   0.0527514649709832   0.0000000000000000
  0.4871181100865982   0.0534694955937708   0.0000000000000000
  0.4759663238182478   0.0541439373921026   0.0000000000000000
  0.4650424897306392   0.0547759224024376   0.0000000000000000
  0.4543414694194311   0.0553665338532900   0.0000000000000000
  0.4438615277983380   0.0559167464857066   0.0000000000000000
  0.4335966445555638   0.0564277439227250   0.0000000000000000
  0.4235422171719039   0.0569005367499369   0.0000000000000000
  0.4136931783754329   0.0573360485787389   0.0000000000000000
  0.4040479201781875   0.0577350333573017   0.0000000000000000
  0.3946007843384192   0.0580984587592611   0.0000000000000000
  0.3853459130056055   0.0584273588583778   0.0000000000000000
  0.3762828394437238   0.0587225582688298   0.0000000000000000
  0.3674052759622001   0.0589850521268143   0.0000000000000000
  0.3587104110044708   0.0592156767487264   0.0000000000000000
  0.3501952433465900   0.0594152538281565   0.0000000000000000
  0.3418548081050912   0.0595846279097528   0.0000000000000000
  0.3336858663230149   0.0597246577421592   0.0000000000000000
  0.3256868701986138   0.0598362486465025   0.0000000000000000
  0.3178507769372301   0.0599203474438374   0.0000000000000000
  0.3101776523444911   0.0599777679649948   0.0000000000000000
  0.3026620994593082   0.0600092896252224   0.0000000000000000
  0.2953022098091474   0.0600156089816429   0.0000000000000000
  0.2880942515540157   0.0599974067416477   0.0000000000000000
  0.2810344582773878   0.0599553507162620   0.0000000000000000
  0.2741224198462300   0.0598902308958287   0.0000000000000000
  0.2673508102792782   0.0598027829062179   0.0000000000000000
  0.2607208372897423   0.0596938009430880   0.0000000000000000
  0.2542268737219818   0.0595639532054747   0.0000000000000000
  0.2478699323930078   0.0594139942796022   0.0000000000000000
  0.2416426526986943   0.0592444560641495   0.0000000000000000
  0.2355443386744786   0.0590559928562533   0.0000000000000000
  0.2295742285057687   0.0588492600763349   0.0000000000000000
  0.2237267309732288   0.0586247739586633   0.0000000000000000
  0.2180011540540604   0.0583832555000465   0.0000000000000000
  0.2123936096745636   0.0581252700988444   0.0000000000000000
  0.2069018249031851   0.0578514118247249   0.0000000000000000
  0.2015265925874962   0.0575624139311738   0.0000000000000000
  0.1962639217171782   0.0572587327640815   0.0000000000000000
  0.1911098627978642   0.0569407701058159   0.0000000000000000
  0.1860635373512509   0.0566090833477142   0.0000000000000000
  0.1811225555455632   0.0562641183158228   0.0000000000000000
  0.1762831066659017   0.0559062017034564   0.0000000000000000
  0.1715472965099615   0.0555361405439852   0.0000000000000000
  0.1669099315072494   0.0551541804881659   0.0000000000000000
  0.1623702175183220   0.0547608759938091   0.0000000000000000
  0.1579259317985442   0.0543566416724963   0.0000000000000000
  0.1535748664842349   0.0539418626674859   0.0000000000000000
  0.1493147619729656   0.0535168899310313   0.0000000000000000
  0.1451447283274916   0.0530821904592715   0.0000000000000000
  0.1410625235604109   0.0526380756497570   0.0000000000000000
  0.1370659530359299   0.0521848322503466   0.0000000000000000
  0.1331567814638518   0.0517231967360234   0.0000000000000000
  0.1293276562313525   0.0512528455259629   0.0000000000000000
  0.1255804504092525   0.0507745502773552   0.0000000000000000
  0.1219131281255899   0.0502885988465475   0.0000000000000000
  0.1183237015509818   0.0497952534010120   0.0000000000000000
  0.1148102318092792   0.0492947513229479   0.0000000000000000
  0.1113720175725520   0.0487874812015910   0.0000000000000000
  0.1080070759532941   0.0482736140267307   0.0000000000000000
  0.1047146335147149   0.0477534816268928   0.0000000000000000
  0.1014927513745349   0.0472272179600503   0.0000000000000000
  0.0983395479756496   0.0466949369878610   0.0000000000000000
  0.0952554508934213   0.0461571322873805   0.0000000000000000
  0.0922363866432952   0.0456135046927440   0.0000000000000000
  0.0892828700951544   0.0450645654218522   0.0000000000000000
  0.0863942718297865   0.0445106297655928   0.0000000000000000
  0.0835678320075330   0.0439515803137779   0.0000000000000000
  0.0808019575920066   0.0433874837688950   0.0000000000000000
  0.0780971710598979   0.0428188278852694   0.0000000000000000
[...]
POINT_DATA 6176
SCALARS continuity float
LOOKUP_TABLE default
0.0004184729417106571
-0.001435571261475065
-0.0005037967466970368
-0.00015778679926999078
-0.0003423278813960249
-0.0003445725430640136
-0.00018231081209190778
-0.00012896685171348118
-0.0001190976383652222
-7.618881288981713e-05
-7.337928066363107e-05
-0.00015384955468395205
-0.00011904527412280895
-0.00011842991529383163
-0.00010297059504722192
-8.423567588673468e-05
-0.00011635769591008635
-0.00016827711929309254
-0.00019459297679579583
-0.0003192328852812639
-0.00026982980896765016
-0.00023831632481074154
-0.0002066940966285961
-0.00012323841552497311
-9.914008500700366e-05
-0.00013468595892543434
-0.00017098377560567128
-0.00012725371478507292
-6.078261019372072e-05
1.1297459540027813e-05
5.888252799063696e-05
9.484123890895869e-05
0.00014030166563803467
0.00021433094245493702
0.0002992053271524643
0.00034948895698650367
0.00038196470224038866
0.000424681369876818
0.0004974621478419324
0.0005667417033066143
0.0006080207835448964
0.000643728009567458
0.0006908448913370249
0.0007304545085296484
0.0007472448204879303
0.0007593697455656841
0.0007772856957354116
0.0007862708114714462
0.0007789360274244372
0.0007703798591773235
0.0007783392373762075
0.0007846787862887379
0.0007832039866458824
0.0007813390558056457
0.0007848082506180703
0.0007793861691738353
0.0007696323572903209
0.0007880880946972265
0.000844011740279976
0.000926667743908182
0.0010101344020736797
0.0010823379313215753
0.0011383218094422618
0.0011827112817780444
0.0012380053012247165
0.0013170182532825302
0.0014050652770083874
0.0014833519235916048
0.001566374632074934
0.0016756335509608305
0.0018016038986839646
0.00189812071240731
0.0019324268130963287
0.0019316539354763522
0.0019555087052630605
0.00202434412835482
0.002104046357029264
0.002158123837483306
0.0021603745014590744
0.0020821829462770274
0.0019139554578381244
0.0017070705270938633
0.0014790236564561458
0.0011719739807992027
0.0007293343202160996
0.0002917824978883216
0.0002371269017316794
-1.0769582871640213e-05
-0.00027670475070405676
-0.00047731678143804175
-0.0006330301217255905
-0.0007943970548317616
-0.0009709167035119833
-0.0011330296246789312
-0.0012501346541696164
-0.0013089098603015618
-0.0013213243077085947
-0.0012980084272318031
-0.0012361301467637858
-0.0011298840931705675
-0.0009999035073966235
-0.0008793779861067713
-0.0007702841010730002
-0.0006442680165038558
-0.0004903419087534788
-0.00032278396166411844
-0.00015956616777591118
-9.218538337880207e-06
0.0001522882203761339
0.00033157153466939184
0.0005051274594278848
0.0006600799656694916
0.0008088829802089846
0.0009707930394158648
0.0011404252510504188
0.0013015862435734598
0.0014345304611817502
0.0015194538461640477
0.0015699708193322485
0.0016275511709160644
0.0016971522954806867
0.0017723543019327501
0.0018569690814986683
0.001962104006308056
0.002093406465320441
0.002264338603931436
0.0024026371829237708
0.0023862353291038522
0.002240613915137784
0.0021284394467077296
0.0021121514241449666
0.0021499587385806944
0.0022041265549009024
0.0023186548091453005
0.0025112412319418464
0.0025846148880272566
0.0023602000178335933
0.0022289762433195825
0.0022583888374364583
0.0022573711168163454
0.002281517592020712
0.002330239369592082
0.002398559698932077
0.0025634374024151316
0.0031114822203272673
0.0035253172654427785
0.0029764229680783643
0.00251333776417717
0.002510216129625268
0.0025408606157901253
0.0025942972234447906
0.0027677565805546925
0.0030407111560199814
0.004816653518175956
0.0032152083081665277
0.003443594222016312
0.003059512897142931
0.003144213907800896
0.003001556337240451
0.003026580682975381
0.0028501022565307933
0.0027834930412495894
0.004520502580724189
0.002706005566076429
0.00252035041964942
0.0025140559081289282
0.0024658598718668204
0.0023649057373158434
0.0024714385485406325
0.002582146542503947
0.00168209915587113
0.0025422156132030027
0.0023005229089933113
0.002258538046482181
0.0019997108712584808
0.0020058166042630555
0.0017209030791942661
0.003592956191185227
0.000793303750440275
0.0031914851793535203
0.0004569450622336414
0.002731526817347257
-0.00025234421020490263
0.002155479300382576
-0.0007049321592052996
0.0015323772963793695
-0.0012045793586130133
0.0009008982680107934
-0.00176667905211068
0.0002417821800039363
-0.0029520095154829894
-0.002949358543812352
-0.0030276562559869145
-0.003733214690124518
-0.004177026106466338
-0.0045918258588407345
-0.004660842085654504
-0.0051179824985485714
-0.005243281353413841
-0.005538770243211505
-0.005476705164415135
-0.005843404798039094
-0.006277804681059428
-0.006425290632732784
-0.006374843359101776
-0.004412492145794928
-0.0044082658036155185
-0.002895976838765586
-0.0009338289422145575
0.0009908071252939649
0.002873452329282761
0.005134411780936134
0.006464379628751654
0.007224687871712933
0.00782397194940061
0.008068682560202827
0.008515154607540319
0.010715281545320808
0.010635461034832705
0.010339080616287985
0.010658747040863689
0.01115793532257108
0.011060116334278055
0.010305514979579187
0.010009549315513998
0.009319669799910727
0.008917782868013884
0.0086855346325284
0.008363991613973004
0.008070700565372596
0.007034394290325638
0.006654483861359555
0.004932503298092161
0.008325697116908509
0.004472150762831339
0.007724652408022987
0.0042707763991232175
0.007190242018414702
0.003798447951694881
0.006621058366673832
0.0034409798322450652
0.006271066656326616
0.003203206454455682
0.00641510460100474
0.003241184121797821
0.0062872676521103545
0.0032488415143038297
0.0062154804012940525
0.004045225827781159
0.0038570103450082556
0.003971214484989108
0.004266574020122553
0.0033779257458071807
0.0036964525060548567
0.0036962618255958466
0.0034772143853361854
0.003566723515440607
0.0035107787747906153
0.0036128975445865637
0.0037099735249664493
0.005510778192659234
0.004193316422441269
0.004324389112781599
0.004442188740104919
0.004447689652977564
0.004529505291356751
0.0043345459168522196
0.004694210402421164
0.0045504578701803565
0.004459048829709064
0.005326408539395348
0.00435286113359635
0.004235945924867761
0.0042591081060448024
0.004319511444822244
0.004495349182541084
0.004683902496007383
0.004637141373118452
0.004390895291840556
0.004279697822658791
0.0042176782622208205
0.004164253904956132
0.00415499189027432
0.004197752311713216
0.004245252478541064
0.004282246009238624
0.004378398441081789
0.004519984793700003
0.004545714472093772
0.0044999174771413455
0.00440748690292367
0.0043238379818460685
0.00428289448593513
0.004262264166542271
0.0042446872150338774
0.004299432638083235
0.004439475917289609
0.004562015116819327
0.004605724436691946
0.004585074457136186
0.004560655714160839
0.00453193052188589
0.00447986311591154
0.00443894165767924
0.004481251324738961
0.004606588572605462
0.004746344633856494
0.004851209752466914
0.004942869308587349
0.0050586215535620704
0.005216845505237415
0.005404665025341766
0.00558471991579795
0.005752423014122959
0.005949583297129111
0.00621769852424977
0.00651998365657061
0.006796394955606857
0.007026602950520017
0.0072221827969479215
0.007376577028722346
0.0074753797686338205
0.007540688014525952
0.007608973180665032
0.007678638505545702
0.007693869373770683
0.007609737799937941
0.007415311263567397
0.0071103196288158105
0.006685373587546991
0.006137760977245045
0.005482835253283543
0.004774261170390653
0.004076691785597927
0.0034105223285949226
0.0027455513978602497
0.002031076119365513
0.0011984286413261006
2.254295507860663e-05
-0.0010786683525150914
-0.0018078064791881784
-0.0023817804009250592
-0.0028249780018891994
-0.003146233184633354
-0.0033801562471168552
-0.0035610479199199925
-0.003714104029277186
-0.0038347935377784723
-0.003917245815211375
-0.0039587830813172485
-0.003954513965224693
-0.0038930616484648653
-0.003793362991313705
-0.0037032449055881995
-0.003627066630162009
-0.003543876131981905
-0.0034352344084262604
-0.003302880012280248
-0.003162851099068576
-0.0030041417025079946
-0.0028030713280637358
-0.002554746134468037
-0.002300392929149742
-0.0020756462887462634
-0.0018939080760528066
-0.001755995766795154
-0.0016587577318109667
-0.0015667612046460595
-0.0014531426752690296
-0.0013213247643202696
-0.001219785788528184
-0.0011549618544377258
-0.0011014457214820442
-0.0010484057979350716
-0.001013488390900152
-0.0010018701675038638
-0.0009846101032696618
-0.0009314035720583993
-0.0008522741143351586
-0.0007756285201968485
-0.0007259021317513955
-0.0007026551956852737
-0.0006958539270311528
-0.0006988761104539614
-0.0007041562831753974
-0.0006909841424453947
-0.000637814322734206
-0.0005696302559951051
-0.0005163173949558932
-0.0004743222668705607
-0.0004247646072879341
-0.00036627272404040376
-0.0003109909836977734
-0.00023980898583021243
-0.00013668347560050943
-3.0963794546855415e-05
7.399844655863113e-05
8.652295928718523e-05
0.00017458687265723183
0.00028141158134429163
0.0003312560125248683
0.00035823610829205523
0.00039513251153672804
0.00045923104537808697
0.0005294168020553596
0.00048475939470906564
0.0004074282757923262
0.00035829523518827495
0.00027861194053330814
0.00019198535109508786
9.454277160884467e-05
-1.3098771483416277e-05
-0.00012542007569570912
-0.00021102578511755226
-0.00036955180784471275
-0.000455252221269244
-0.0005808036824575908
-0.0007679774567112899
-0.0009193484828959311
-0.0009639789639224876
-0.0009763860673115449
-0.00047647070968521684
0.0009377357505690562
-0.001316298154659645
0.0009226732501425054
0.0009976648088532594
0.0011764835947882092
0.0012089963057854835
3.463871045287633e-07
-0.0014264478283246887
-0.000549326166659849
-0.0011389996328341643
-0.00047346088188944383
-0.004267760787261404
-0.0005268320456772987
-0.0005278011996480486
-0.0005415711272887915
-0.0038064779022104036
-0.00046155767928635744
-0.0009691354971110185
-0.00031358979117730967
-0.004118124635661824
-0.00020814629812281735
-0.00577915593239214
-0.00024014175777887077
-0.0035082699527720766
-0.0002143820072690411
-0.0008168982974273847
-0.0002158434168193944
-0.004228932949995815
-0.00023338374088808958
-0.0012510480453221833
-0.00024214664693215037
-0.0023832716528412136
-0.0002326002956561622
-0.000696298731035882
-0.00021357552619402274
-0.004148864300214695
-0.00019494990441750086
-0.0040048373576714305
-0.00023244855305357175
-0.0018702104070477277
-0.00029583511295319995
-0.0005912244989267253
-0.00037497055164574874
-0.00397896346348673
-0.0004100946650873704
0.0002098109977151395
-0.0003983265145874575
-0.0009204460802512665
-0.00037103930078573907
-0.00041618345548240075
-0.00032454002144237664
-0.0029231111428962824
-0.00025474167802509885
-0.003181492300996571
-0.00029047410523441025
-0.001112646788693512
-0.0003126921870219443
-0.0002731333711690435
-0.00035064036821071234
-0.0020310625640530214
-0.0002878415072613317
-0.0011116637914214624
-0.00022289818252136886
0.0003520663090443911
-0.0001637383642639933
-8.595029874604312e-05
-0.00012080877010580494
-0.0014641975332049459
-8.140180538226373e-05
-0.0026323466994503195
-3.0571229648568997e-05
0.0002414371912218292
4.911703697641749e-05
8.194724995898222e-05
0.00012131670705919925
-0.0013464897877680736
0.00016236538038179928
-0.00031121038224936055
0.00019411670148648542
0.0005689313977724608
0.0002526615647247226
0.00021414627252234008
0.0003229348308178106
-0.0008418142736781968
0.00038461620882416
-0.0019664788388830657
0.00042572260076088474
0.0010603153793178816
0.000469862211647588
0.00036691570296882664
0.0005148953299504845
-0.000406314059011729
0.0005433170896677384
-0.0009666622101739009
0.0005598105017136641
0.0017562471398776236
0.0005780513967080464
0.0005117783055520277
0.0005988909873597592
0.0001662239656392415
0.0006042899969959678
-0.0016358716859102638
0.000597268287994211
0.0021193152765076064
0.0005955241097493939
0.0005579705841919374
0.0006001901806855878
0.001689762939588561
0.0005996682352242216
0.0006517973930239332
0.0005925571188907411
0.003003814354014193
0.0005926112983807946
0.0004348726911272128
0.0005939412706672985
0.0018341621410305864
0.0005834472027570804
-0.000258284324452759
0.0005787758486486129
0.0033329380671417914
0.0006036629731373087
0.000446034528909307
0.0006624251017279766
0.0016260900070472863
0.0007376062070861102
-0.0008846769507463848
0.0008134402730853816
0.0032678089276327368
0.0008795909614583788
0.0005201124154859208
0.000931225663747719
0.002098235800868136
0.0009757495731928091
0.0001430880705825605
0.0010371209169745214
0.003190175616624593
0.0011207539958947366
0.0006818832363936016
0.0012075135065858285
0.002319631506812463
0.0012871365246658567
-0.0004166219583164947
0.0013742821186922306
0.0037642062093650444
0.0014853221320966963
0.0008013826784209426
0.001597965006291194
0.0020708642509478467
0.0016692464861904992
0.0008114350364336069
0.0016881922643591535
0.0031120777622358157
0.0016915154477052993
0.0008991741491765349
0.0017324480526693213
0.0019450961736184357
0.0018086240372378267
-0.0008490003548957434
0.0018798397434548085
0.0031108374830112386
0.0019188459186463573
0.0010414030055861641
0.0018939177238597989
0.002217287007060037
0.0017783936630758083
0.000737597239267439
0.0015932343721208708
0.002989805901984984
0.0013862408934476943
0.0011851284028513815
0.0011533697172237593
0.002517332457415881
0.0008165518772381888
0.0010471522298382075
0.00032233031426384207
0.0026627636639510927
-6.432274068489304e-05
0.001209477208193669
-6.478029324872485e-05
0.0021416736974313945
-0.00028548627352408055
0.001532516252269619
-0.0005731833640256549
0.0021093095971810197
-0.0008024063698848176
0.001234438912638667
-0.0009842046260505515
0.002232276209262073
-0.0011586701559321343
-0.000689587161334126
-0.0013455015138198834
0.002042243931305726
-0.0015268036227262115
0.0011056696888518997
-0.0016685866119452101
0.00196405872558476
-0.001752896245698107
0.002861878548640428
-0.0017871717427252508
0.0022013374180790395
-0.0017837788582494346
0.0009204784405480912
-0.001745832612126149
0.0032689088378177796
-0.001674566479193514
-0.00015941683672031126
-0.0015784581789341356
0.0032320656819173296
-0.0014805961545155508
0.0008069464493042076
-0.001387375372948961
0.003075207115553485
-0.0012831501869625629
0.0016954026183716863
-0.0011564307189681636
0.0025185746799737257
-0.0010143396086521273
0.0009332934398464282
-0.0008696899404249688
0.0021467324912982657
-0.0007340368362900281
0.00872938114418178
-0.0006031340980946683
0.0019029553731854572
-0.00047510309201953093
0.0011449819328543205
-0.00034365363659392777
0.0015300677455431918
-0.00021321104710699432
0.0030969101916407667
-8.201355078137643e-05
0.0014063196961917124
5.530105539927533e-05
0.0015064474916890531
0.00019511516817662962
0.0011487676844204907
0.00033104654808753764
0.003243198952253061
0.00044558864160260515
0.0014464566500257724
0.0005197030966669055
0.001573749190241305
0.0005313135663643078
0.0020906528016839407
0.0005129132144538199
0.0024086492132485014
0.0005295757565878005
0.0023007599727751186
0.0005843125920007591
0.0017737359546353077
0.0006621086939168674
0.0019104817326769286
0.0007394596140977907
-0.0005057396634188473
0.0008384438435686502
0.0016370388800555323
0.0009745488915448751
0.00161334972670692
0.0010910116004053726
0.0012590545791814208
0.0010658087304236878
0.0026194200075255357
0.0008855340339801208
0.0010381283974790823
0.0006990002739125893
0.001196132726502298
0.0006170588139730293
0.0009796912185055006
0.0006347961747838051
0.00046752009889052426
0.0007039990115245818
0.0008902282275147056
0.0008222647891163522
0.0014132025407408216
0.0009456073766071881
0.0006676761384608097
0.0009952048183898637
0.003487495343418132
0.0007452272612396718
0.0006925410399539749
0.0005804336843085106
0.001593331762558813
0.0005920395884821734
0.0010994323725500715
0.0006346231355124857
-0.00039255245559393693
0.0006544427256455782
0.0010596747755863547
0.000686878781321062
0.0016777554745810643
0.0008032681603188561
0.0010137832705014928
0.0010376615577852263
0.002878949151723417
0.00138059513318071
0.0008431973162254029
0.0016741058602581845
0.001935122909096467
0.0011649802145168966
0.000679545057648754
0.0008474663758533333
-0.0005637403246361735
0.0007427327511427973
0.000594024750484428
0.0008237823815247441
0.0025857931117654145
0.0009183245677955123
0.0004898296750265547
0.0011556478197859968
0.0024263596798819857
0.0013512481312886492
0.0004971587884595764
0.001476818203421277
0.0025765054757646054
0.0016719711584390765
0.0006478593679756825
0.0017545964928345652
-0.00020543229865753194
0.0018201555804972945
0.0009519018941684922
0.0013114591938431911
0.002803538610663978
0.0012332566715996794
0.0009594847518872038
0.0012305147967953346
-0.007342562422281747
0.0011312499979388069
0.0008269387554368557
0.0011116368199733835
0.0029145068734427793
0.00127674013751925
0.0006847049404452122
0.0010861326468391242
0.0004437968711989864
0.0008755372481469301
0.0005865099353705328
0.0010740113871637994
0.003229083221959817
0.0007097291340674956
0.00048496420786514984
0.0010094210593306527
0.003594082626060024
0.0007451408616731854
0.0003768891120503089
0.0008936935312665593
0.0020539868177028805
0.0008246683538927242
0.0003055423533552832
0.0008566988420735587
0.00012852928552287734
0.0008748884149506894
0.0002638489520617941
0.0006253580389945576
0.0023135739132215008
0.0005056543765427702
0.00029745238448779276
0.0003973875701663383
-0.000790175007978614
0.0002468792584432158
0.00029105321842748784
0.0003957402443293593
0.002234290419081574
-5.924209897660229e-05
0.00020274308140801989
-9.305620731254481e-05
0.0003295268787735965
-0.0005669718097716394
6.6562808944086e-05
-0.00078046775472563
0.0030568568954690983
-0.0012601517514812298
-7.292150269037738e-05
-0.0011228020310667716
0.004545778257902421
-0.001576524410162735
-0.00021962138547872387
-0.00159826339685421
0.0032540553469534344
-0.0019163405022257314
-0.00037041469112927155
-0.0020399861486091876
0.00020529216074416856
-0.0022805843481365
-0.0005027509005941755
-0.0026527306764002135
0.0036991851280011264
-0.0030970383993723983
-0.0006364961817495378
-0.003081396119445918
0.00925411278122565
-0.003559994759374497
-0.0007618137613950707
-0.003525989882207022
0.004017235159108272
-0.004453716410757274
-0.0008877117539852373
-0.003908360323815086
0.0005510022697974955
-0.004473352305992497
-0.0010219477249290127
-0.003708752131978588
0.004538983286172279
-0.004216672648104613
-0.001162161781236877
-0.003158476652262476
0.003370622842329684
-0.0034955776603920008
-0.0013099596458407163
-0.002759560891084926
0.004922807849380359
-0.003052762272590165
-0.001456957753855071
-0.0030058607127482068
0.0004756679356585493
-0.0027253860932969724
-0.0015831000393999556
-0.0021587932350426277
0.0034957960577659017
-0.0009409570655616033
-0.0016794747762825816
0.0004684766811204296
0.002783561704471649
0.0020764622935691202
-0.0017621502775952628
0.003990387579458977
0.003478246099698557
0.004835594645533541
-0.0018474413579618143
0.006277948382688318
-0.0008521637752344148
0.0072458742836802965
-0.0019283339676967087
0.007936234167879513
0.0025196712078778285
0.008782978893122765
-0.0019941300758063905
0.009263281698264337
0.003575268775734269
0.009682097836337555
-0.0020344448344397107
0.010338423097710329
0.0035974154436762477
0.011334153763255774
-0.0020424888632768336
0.011449039033448715
0.0007048894567681461
0.010862848803491833
-0.0020085927118816366
0.010288691541769548
0.003429041165051326
0.008996946281297886
-0.0019187542976633594
0.00837706886999522
0.0035308683064177965
0.006940284553599831
-0.0017687797633774648
0.006569485185231557
0.003641559731453581
0.005523153550558384
-0.0015755751876159628
0.004894264431388758
7.929006563832885e-05
0.004759992615034394
-0.0013722098135248615
0.004799577066050444
0.0036446038265299805
0.003760390999889368
-0.001181828488340113
0.003316835732891637
0.001979702158719986
0.0028274646935687337
-0.0009927486240365708
0.0024259952092765416
-0.00036072797860164213
0.002183209076191201
-0.0007621445212146426
0.0021665425212816425
0.0004027607157007458
0.0019357243833679363
-0.0004693059697355516