# vtk DataFile Version 1.0
GRUMMP topologically 2D mesh
ASCII

DATASET UNSTRUCTURED_GRID
POINTS 6176 float
  1.0000000000000000   0.0000000000000000   0.0000000000000000
  0.9979736161243241   0.0002872981906159   0.0000000000000000
  0.9959038003591104   0.0005818082753016   0.0000000000000000
  0.9937894604158818   0.0008826109490225   0.0000000000000000
  0.9916311447855282   0.0011889740049165   0.0000000000000000
  0.9894256878168368   0.0015011074645448   0.0000000000000000
  0.9871732566523234   0.0018189104108560   0.0000000000000000
  0.9848739492731372   0.0021423104928037   0.0000000000000000
  0.9825241245750710   0.0024717658271048   0.0000000000000000
  0.9801244133260449   0.0028071825305054   0.0000000000000000
  0.9776732769852096   0.0031487906039340   0.0000000000000000
  0.9751690039483889   0.0034968357351786   0.0000000000000000
  0.9726117072730877   0.0038512643819321   0.0000000000000000
  0.9700001180350898   0.0042121148976419   0.0000000000000000
  0.9673332227148538   0.0045793859121594   0.0000000000000000
  0.9646079236541195   0.0049533708962095   0.0000000000000000
  0.9618249648196705   0.0053338679490647   0.0000000000000000
  0.9589807878895711   0.0057213439443832   0.0000000000000000
  0.9560767311296049   0.0061156062701256   0.0000000000000000
  0.9531120216710255   0.0065167463399167   0.0000000000000000
  0.9500819018783057   0.0069253778138591   0.0000000000000000
  0.9469876484068450   0.0073412143029309   0.0000000000000000
  0.9438286210030068   0.0077641908681895   0.0000000000000000
  0.9406001269296587   0.0081947829660712   0.0000000000000000
  0.9373041277084813   0.0086325757434285   0.0000000000000000
  0.9339368121646437   0.0090779560824189   0.0000000000000000
  0.9304976431076690   0.0095309377793780   0.0000000000000000
  0.9269838874379289   0.0099918267186165   0.0000000000000000
  0.9233965242394278   0.0104604374002928   0.0000000000000000
  0.9197323684717913   0.0109371203977286   0.0000000000000000
  0.9159901296799260   0.0114219111797446   0.0000000000000000
  0.9121662515702946   0.0119150917142392   0.0000000000000000
  0.9082612640703632   0.0124164093968364   0.0000000000000000
  0.9042711890176098   0.0129261849544228   0.0000000000000000
  0.9001985925103467   0.0134439182275261   0.0000000000000000
  0.8960367883853674   0.0139703538547480   0.0000000000000000
  0.8917881131106570   0.0145051006126241   0.0000000000000000
  0.8874465968544013   0.0150488093430172   0.0000000000000000
  0.8830132689405343   0.0156012428338051   0.0000000000000000
  0.8784843643309772   0.0161627200549514   0.0000000000000000
  0.8738585592690924   0.0167332093564690   0.0000000000000000
  0.8691331845657406   0.0173128340473851   0.0000000000000000
  0.8643080629784704   0.0179014022230632   0.0000000000000000
  0.8593790220315882   0.0184992057974382   0.0000000000000000
  0.8543443022105112   0.0191062525475961   0.0000000000000000
  0.8492020742372332   0.0197225542022908   0.0000000000000000
  0.8439504592998461   0.0203481184762133   0.0000000000000000
  0.8385847225217766   0.0209832807547837   0.0000000000000000
  0.8331043690503205   0.0216278714070098   0.0000000000000000
  0.8275075883744546   0.0222818740978654   0.0000000000000000
  0.8217896079901662   0.0229456038551552   0.0000000000000000
  0.8159499389768221   0.0236188617887649   0.0000000000000000
  0.8099850870934132   0.0243017702717010   0.0000000000000000
  0.8038929332928342   0.0249942623102002   0.0000000000000000
  0.7976697970229181   0.0256964297179088   0.0000000000000000
  0.7913134730328051   0.0264081777898121   0.0000000000000000
  0.7848218596203610   0.0271293903098903   0.0000000000000000
  0.7781898173908960   0.0278602762976724   0.0000000000000000
  0.7714169256365310   0.0286005013921829   0.0000000000000000
  0.7644979701754163   0.0293502351726533   0.0000000000000000
  0.7574308659438134   0.0301093068082177   0.0000000000000000
  0.7502135053150701   0.0308775557618342   0.0000000000000000
  0.7428404612557281   0.0316551512399728   0.0000000000000000
  0.7353096164115749   0.0324418730798164   0.0000000000000000
  0.7276172963491144   0.0332375368705936   0.0000000000000000
  0.7197598859172740   0.0340418579688506   0.0000000000000000
  0.7117355290536627   0.0348543282856948   0.0000000000000000
  0.7035389878799579   0.0356747811793425   0.0000000000000000
  0.6951650952820780   0.0365031090698871   0.0000000000000000
  0.6866122709923126   0.0373388258653197   0.0000000000000000
  0.6778754950330185   0.0381817369178559   0.0000000000000000
  0.6689534383202176   0.0390312029136988   0.0000000000000000
  0.6598376964403885   0.0398871771799410   0.0000000000000000
  0.6505290121117546   0.0407486821288951   0.0000000000000000
  0.6410191910005383   0.0416153892989160   0.0000000000000000
  0.6313056496470314   0.0424862165552765   0.0000000000000000
  0.6213823079172336   0.0433602824420315   0.0000000000000000
  0.6112489281649386   0.0442362457646169   0.0000000000000000
  0.6008963123926909   0.0451137308907019   0.0000000000000000
  0.5903211292528141   0.0459917803130241   0.0000000000000000
  0.5795184839365645   0.0468692540951747   0.0000000000000000
  0.5684857150099230   0.0477443424041717   0.0000000000000000
  0.5572148862675538   0.0486154402631608   0.0000000000000000
  0.5457024491672809   0.0494805599680832   0.0000000000000000
  0.5339780836677636   0.0503353194116202   0.0000000000000000
  0.5219860728183490   0.0511813660693644   0.0000000000000000
  0.5101253307512127   0.0519891081313360   0.0000000000000000
  0.4985043971600128   0.0527514649709832   0.0000000000000000
  0.4871181100865982   0.0534694955937708   0.0000000000000000
  0.4759663238182478   0.0541439373921026   0.0000000000000000
  0.4650424897306392   0.0547759224024376   0.0000000000000000
  0.4543414694194311   0.0553665338532900   0.0000000000000000
  0.4438615277983380   0.0559167464857066   0.0000000000000000
  0.4335966445555638   0.0564277439227250   0.0000000000000000
  0.4235422171719039   0.0569005367499369   0.0000000000000000
  0.4136931783754329   0.0573360485787389   0.0000000000000000
  0.4040479201781875   0.0577350333573017   0.0000000000000000
  0.3946007843384192   0.0580984587592611   0.0000000000000000
  0.3853459130056055   0.0584273588583778   0.0000000000000000
  0.3762828394437238   0.0587225582688298   0.0000000000000000
  0.3674052759622001   0.0589850521268143   0.0000000000000000
  0.3587104110044708   0.0592156767487264   0.0000000000000000
  0.3501952433465900   0.0594152538281565   0.0000000000000000
  0.3418548081050912   0.0595846279097528   0.0000000000000000
  0.3336858663230149   0.0597246577421592   0.0000000000000000
  0.3256868701986138   0.0598362486465025   0.0000000000000000
  0.3178507769372301   0.0599203474438374   0.0000000000000000
  0.3101776523444911   0.0599777679649948   0.0000000000000000
  0.3026620994593082   0.0600092896252224   0.0000000000000000
  0.2953022098091474   0.0600156089816429   0.0000000000000000
  0.2880942515540157   0.0599974067416477   0.0000000000000000
  0.2810344582773878   0.0599553507162620   0.0000000000000000
  0.2741224198462300   0.0598902308958287   0.0000000000000000
  0.2673508102792782   0.0598027829062179   0.0000000000000000
  0.2607208372897423   0.0596938009430880   0.0000000000000000
  0.2542268737219818   0.0595639532054747   0.0000000000000000
  0.2478699323930078   0.0594139942796022   0.0000000000000000
  0.2416426526986943   0.0592444560641495   0.0000000000000000
  0.2355443386744786   0.0590559928562533   0.0000000000000000
  0.2295742285057687   0.0588492600763349   0.0000000000000000
  0.2237267309732288   0.0586247739586633   0.0000000000000000
  0.2180011540540604   0.0583832555000465   0.0000000000000000
  0.2123936096745636   0.0581252700988444   0.0000000000000000
  0.2069018249031851   0.0578514118247249   0.0000000000000000
  0.2015265925874962   0.0575624139311738   0.0000000000000000
  0.1962639217171782   0.0572587327640815   0.0000000000000000
  0.1911098627978642   0.0569407701058159   0.0000000000000000
  0.1860635373512509   0.0566090833477142   0.0000000000000000
  0.1811225555455632   0.0562641183158228   0.0000000000000000
  0.1762831066659017   0.0559062017034564   0.0000000000000000
  0.1715472965099615   0.0555361405439852   0.0000000000000000
  0.1669099315072494   0.0551541804881659   0.0000000000000000
  0.1623702175183220   0.0547608759938091   0.0000000000000000
  0.1579259317985442   0.0543566416724963   0.0000000000000000
  0.1535748664842349   0.0539418626674859   0.0000000000000000
  0.1493147619729656   0.0535168899310313   0.0000000000000000
  0.1451447283274916   0.0530821904592715   0.0000000000000000
  0.1410625235604109   0.0526380756497570   0.0000000000000000
  0.1370659530359299   0.0521848322503466   0.0000000000000000
  0.1331567814638518   0.0517231967360234   0.0000000000000000
  0.1293276562313525   0.0512528455259629   0.0000000000000000
  0.1255804504092525   0.0507745502773552   0.0000000000000000
  0.1219131281255899   0.0502885988465475   0.0000000000000000
  0.1183237015509818   0.0497952534010120   0.0000000000000000
  0.1148102318092792   0.0492947513229479   0.0000000000000000
  0.1113720175725520   0.0487874812015910   0.0000000000000000
  0.1080070759532941   0.0482736140267307   0.0000000000000000
  0.1047146335147149   0.0477534816268928   0.0000000000000000
  0.1014927513745349   0.0472272179600503   0.0000000000000000
  0.0983395479756496   0.0466949369878610   0.0000000000000000
  0.0952554508934213   0.0461571322873805   0.0000000000000000
  0.0922363866432952   0.0456135046927440   0.0000000000000000
  0.0892828700951544   0.0450645654218522   0.0000000000000000
  0.0863942718297865   0.0445106297655928   0.0000000000000000
  0.0835678320075330   0.0439515803137779   0.0000000000000000
  0.0808019575920066   0.0433874837688950   0.0000000000000000
  0.0780971710598979   0.0428188278852694   0.0000000000000000
[...]
POINT_DATA 6176
SCALARS continuity float
LOOKUP_TABLE default
0.0040586664561747775
0.00329886033601614
0.0033380155058695795
0.003392457044905907
0.003519855736666375
0.0034005092590343225
0.0031450501954553753
0.0028971312189706856
0.0027011655967512684
0.0025538944895237424
0.0023229564366412116
0.0021919075024693737
0.002001044838149862
0.0018059824863833054
0.001631707090867402
0.0015259513470403446
0.0013691070122397737
0.0012356440901489427
0.0010575579468962162
0.0009469346449068431
0.0008531979910538156
0.0007450422108805714
0.0006465535178516701
0.0006174088983422434
0.0005991177438081965
0.0005507514562268301
0.0004950078514147197
0.0004582772567553675
0.00042371373873540503
0.0003883527509758829
0.00033519683624226625
0.0002829616680517337
0.000248937339289183
0.0002486045166274694
0.0002774790578299471
0.00028455766706625516
0.00025884682048545336
0.00021825054913649674
0.0001666460671827019
0.00010237876222828806
2.3021456677113052e-05
-4.864200433756195e-05
-0.0001009522802090832
-0.0001436194300029066
-0.00019513863622422052
-0.00026800120379189094
-0.0003540614297973654
-0.0004499829691439551
-0.0005424718201792801
-0.0005947224881263821
-0.0006109130538034477
-0.0006162179680359694
-0.000636573380814772
-0.0006726673808441304
-0.0007124792226688355
-0.0007481665487692035
-0.000761290575160928
-0.000722636754845825
-0.0006376332617139468
-0.0005360861840114835
-0.00044716161213532817
-0.0003776010503706857
-0.00032775618843917226
-0.00028647767667457774
-0.0002342861854006744
-0.00015859927879645255
-7.800736121130895e-05
-1.2039780657543693e-05
4.251698135257907e-05
0.00010349030613503106
0.00018198912405683617
0.00026945784608614317
0.0003413193699376069
0.00039627049504623436
0.00044653821202388327
0.0005021880806747379
0.000542445039210605
0.0005422287487460743
0.0005112497452256501
0.00046588497378162756
0.00039987296447982165
0.0002935480026947031
0.00013153182407753304
-9.153201008274266e-05
-0.00033843289055115496
-0.0005040580660264954
-0.0007867818262139855
-0.0009552561736715406
-0.0010840203452586465
-0.0012871718347440544
-0.0015997733189741209
-0.0020035877805985856
-0.0024408019148001604
-0.002872591251107309
-0.0032973141108172555
-0.003731740537734541
-0.004171034437934485
-0.004586443273230138
-0.004973467578975175
-0.0053590017553207525
-0.00575492898408202
-0.006119104906287715
-0.006400181251379494
-0.0065880916947414795
-0.0067090065414887445
-0.006777458624913044
-0.006767094848392307
-0.006658041179265643
-0.0065020713896677155
-0.006366837051206327
-0.006249812831257655
-0.006097349081896063
-0.005899476694031726
-0.005700714825990783
-0.005529470905166104
-0.005366433301971945
-0.0051567464100265095
-0.004920855308937825
-0.004770105510567101
-0.004748650248057611
-0.004763247748525024
-0.004720096978453675
-0.00464203387366119
-0.004581250660523139
-0.004537426449607448
-0.004444606361516707
-0.004246697742421109
-0.004058202304283642
-0.0040297201600154086
-0.004111563094809633
-0.004176515939380012
-0.004127913112906454
-0.0040636650310928064
-0.004006951021071239
-0.003844900776750966
-0.0036159306048302114
-0.003719702234884879
-0.003921555051519301
-0.003876697369537286
-0.0037773293045419683
-0.0037542796249228076
-0.0037807636249474162
-0.00379984445176536
-0.003669638265334628
-0.003463202709287249
-0.0036203772257368413
-0.003734393375571696
-0.0037940289007530725
-0.0037207748821185714
-0.003644386032226231
-0.0036819746641384094
-0.0036591874642739348
-0.003628638486218868
-0.004528176487743943
-0.0036524204685387004
-0.00393977503860932
-0.0037707540595080828
-0.004116831158568857
-0.003836557929308024
-0.0037404324627693048
-0.003797898740029402
-0.0037864419821936426
-0.0047283489864432485
-0.0036472957139689266
-0.003963259212341814
-0.003920986973459674
-0.003954917620305692
-0.0038189608489409147
-0.00407839422363298
-0.004266813659594291
-0.004334276586653308
-0.004341435598837219
-0.004358026180983554
-0.004130005931105304
-0.004296334697873259
-0.0041341684929097604
-0.004253926764133305
-0.0052668031255525705
-0.003875813594274962
-0.005600975598400721
-0.004102519175986811
-0.006194579568722941
-0.004261672174569925
-0.006604730189412012
-0.004778047924377988
-0.00726162377588496
-0.005389582750326401
-0.008070215375872042
-0.006249419926280667
-0.009507651617082415
-0.006742047110186395
-0.0078040082906941696
-0.008019834167111304
-0.008319788911787933
-0.008917908863993395
-0.009699485123845211
-0.010593328669374182
-0.011293812526292687
-0.012324529873948454
-0.013379183028448293
-0.01481636104514709
-0.01588142269499635
-0.01660338642223206
-0.017331094042935338
-0.01992914929471374
-0.020254558194427254
-0.02235650121264578
-0.02403050400628134
-0.025561272271153117
-0.026666068329252737
-0.026282663080207394
-0.025904959013213436
-0.02513722423486798
-0.024175301643486472
-0.02281180226863063
-0.021105271698243902
-0.01898657390931608
-0.017515970106158046
-0.01675930475669296
-0.015235553077921274
-0.01391426060966202
-0.012836958828576415
-0.011821360180575176
-0.010756350889408562
-0.010031329284206005
-0.009281636292543971
-0.008443021048192965
-0.007754812405730839
-0.007356054560348388
-0.0068308421458733014
-0.006412028686518724
-0.0060565563087081236
-0.00527714629009181
-0.0069020491871560384
-0.005209467788939223
-0.006840506257573574
-0.00511160795004471
-0.006519906071941885
-0.004735229475469623
-0.0061749436754616315
-0.004419978189755727
-0.005956204564745803
-0.004378075360202464
-0.006414255853383152
-0.004487588825274124
-0.0063153653148485785
-0.004313638228823613
-0.006086445952677308
-0.004663602516833266
-0.004623309230439557
-0.00480475360268615
-0.004892038002518126
-0.0045939631455041005
-0.004652278467998963
-0.004672307891269752
-0.004419532943550361
-0.004599878168707485
-0.004611367699940683
-0.0048165579403912345
-0.004722565824488526
-0.006143627606708323
-0.004985593134733857
-0.0051033545353943175
-0.005148591554279796
-0.005230838005773484
-0.005421543009349422
-0.005185345574970588
-0.005481989421809176
-0.005321802439499068
-0.004999054905067605
-0.005797753075831147
-0.00500067814838332
-0.005103933985876243
-0.005197954883037475
-0.0053403589581088465
-0.005430192336578501
-0.0053898602380310435
-0.005202579525847134
-0.004996016601180256
-0.005041002317551099
-0.005110163601817399
-0.005112705497030844
-0.005109530975514848
-0.005145576415794148
-0.005226624268556351
-0.005270977371192197
-0.005219760509847562
-0.0051691834802328985
-0.005070303808559215
-0.005065392251582401
-0.005081051972718415
-0.00507472198824561
-0.005087675639090968
-0.005105692579493097
-0.005056909581190242
-0.004991075637487521
-0.004979145619133134
-0.005032258012186807
-0.005075938389117618
-0.0050736214207448
-0.005060393300583771
-0.005059725752274362
-0.0050308774927220155
-0.004968399569747232
-0.00492166591410536
-0.004947089654998471
-0.005021616353074153
-0.005085530523476693
-0.005122935755091671
-0.00516567014708229
-0.00522782288978545
-0.005312657784608705
-0.005392601151076803
-0.005441512799008334
-0.0054628258962842536
-0.005490330425220383
-0.0055294747763328
-0.005548287438778591
-0.005521093003809858
-0.005458294704411632
-0.005369261815455375
-0.005238195192552137
-0.005063714111627318
-0.0048770033231925886
-0.004706040979318748
-0.004550740902885807
-0.00439721633668515
-0.004257471299617759
-0.0041473988453375075
-0.004077570202575633
-0.004035225192295142
-0.004000230856643537
-0.003961923371870096
-0.0039380607440888315
-0.003962199439063013
-0.0040548383430227385
-0.004193889820664732
-0.0042762393798452866
-0.0044264741145286345
-0.0047534828298470425
-0.004702968478652845
-0.004588707239554116
-0.004477012535894876
-0.004372955712958552
-0.004257850273672656
-0.004110550992379446
-0.003941101764801467
-0.003774147057960038
-0.003616489054595448
-0.003469883425589573
-0.003333724149300879
-0.0032011484873520606
-0.0030594700875536097
-0.00291470274076831
-0.0027801327172112984
-0.002654488486971571
-0.002543002038791823
-0.0024454495589796375
-0.0023578637933648217
-0.002272748190126289
-0.0021718150110887225
-0.0020664834688622767
-0.0019818371454097972
-0.0019388404328620121
-0.001940799623681128
-0.0019639525952949255
-0.0019863930265370013
-0.0019873439970829114
-0.0019562304407794223
-0.001904849099892427
-0.0018869929473958294
-0.001910738374678996
-0.0019419285880792215
-0.0019586400317077326
-0.0019686291741592412
-0.0019661217099572023
-0.001937263289176435
-0.0018735604169440986
-0.001774674104149745
-0.0016771491601659356
-0.0016393990910774376
-0.0016384369692943122
-0.0016245671231029067
-0.0015892324815140284
-0.0015353668002846133
-0.0014640341921697412
-0.0013762220591796177
-0.001257994394746617
-0.0011232885692639785
-0.0010272269450390932
-0.0009698418505117597
-0.0009371042790913134
-0.0008799469183164655
-0.0007948890157470381
-0.0007049970183859161
-0.000611961898100517
-0.0005239081984666956
-0.00047699575470550016
-0.0005096489851751049
-0.0005093804778780296
-0.0004921897070528968
-0.00046752451379362367
-0.00044212504106562434
-0.0004244586975524623
-0.00040828603238623573
-0.000416144819396328
-0.00031723874426326724
-0.0002950051909539502
-0.00026491857483145945
-0.00023850876167121234
-0.0001402952762357242
1.7334218544412263e-05
0.00019443298937466444
0.0003273378979001823
0.0005699800625182797
0.0007486613859166338
0.0009887338432061164
0.0013212589800069322
0.0017376376866066817
0.0020669427852064597
0.0022575044609143
0.0021287712598888515
0.0020333853649375146
0.0025841369849737518
0.0028800848499607834
0.0033178437254911064
0.00209722578982354
0.0006782382618233764
0.00144203533058148
0.0023278461693057974
0.003010777206691502
-0.005806318982312573
0.003264195052582
-0.014566286733104665
0.003595048265312274
-0.0003638324983455017
0.0035778408655970607
-0.013277427001027768
0.003434766823931552
-0.005712170397078897
0.0031217994845645996
-0.011576389376614852
0.0029589939797347677
-0.001732697856700637
0.0027650774477186533
-0.010290281049879824
0.002586867443551827
-0.005512776914319921
0.002426264137941327
-0.008677464541067922
0.0022092397153947725
-0.004335477092833944
0.0019983822325012396
-0.008159225916373105
0.001816309419176658
-0.005202621684401203
0.0016521458761567765
-0.006494547996982468
0.0015447765991548712
-0.0005907113610269558
0.0014043962854046266
-0.006136550359636747
0.0012573666551005077
-0.004964770046166099
0.0011036614210474598
-0.004752191142356137
0.000966670756232582
-0.001018484400123922
0.0008449913789347343
-0.004389565967484117
0.0007310497443283153
-0.0047779328664019245
0.0006515936133488165
-0.0034431610809758113
0.0006401879340219825
2.428580400563632e-05
0.0005811301386244449
-0.0029233243133725893
0.0005305464880495169
-0.004604547024009865
0.0004770773103199066
-0.0027675795067767447
0.00046037311999666785
-0.004364254095286902
0.00042746982073698357
-0.0025013582706175153
0.00038212588952361566
-0.004337835087409348
0.0003298108436112614
-0.00221159316455628
0.0002862688858415684
0.0012799748840814627
0.00026668618941006893
-0.0016745001776103659
0.0002828232652732078
-0.004074794988884629
0.00030517496418241307
-0.0010686124962623258
0.00030591105534766305
-0.0011085987197926226
0.00028194524983869923
-0.0009916799000564778
0.0002511730626526891
-0.0038562707383347455
0.00020162735781683016
-0.0004319513864588989
0.00013146075118430027
0.002329783868596379
5.495201371787071e-05
-0.0003296357904834949
-1.0499874817678627e-05
-0.003696913071251694
-6.45635208662762e-05
3.026171370278054e-05
-0.00011141456286612734
-0.004343380381157244
-0.00016514317860825693
0.00027211283950074146
-0.0002354189427826465
-0.003440483340613148
-0.0003233617684247381
0.0004945976269722153
-0.00042449942174911285
0.0026345198495925258
-0.0005056978055543286
0.0007908036708867925
-0.0005450337828098092
-0.0031313233905803555
-0.0005591695262284701
0.0009340177389168306
-0.0005729919385334315
-0.0009728567117754788
-0.0005997832255528903
0.00019161533591096133
-0.0006347796385470331
-0.002851323574706204
-0.0006740422312018384
0.000898996232030675
-0.0007110222097699392
0.0023765358942647846
-0.0007113450603315989
0.00021825687556091726
-0.0006551063193014019
-0.0028642519923434465
-0.0005618932342723262
0.00041210084042896485
-0.00046241108456884143
-0.004516402891897803
-0.0003763899070270385
0.0008409429172355172
-0.0003091054523232306
-0.002869640088912622
-0.0002606411354807328
0.0004283156446253614
-0.00021794514416149607
0.0028657111741778093
-0.00015834506943571933
0.0006379776529341117
-7.852865723236673e-05
-0.0028562332196836403
8.544989986049488e-07
0.00021866500602535892
6.566100339546232e-05
-0.0007352360294030334
0.00012113619150193937
0.00046500156590292325
0.00019027067022095751
-0.0026621078115264527
0.0002759081073191672
0.0001235995563976304
0.0003630557566787387
0.0029696250904076788
0.0004285662171453125
0.0006886035044609356
0.0004817629027280542
-0.0025205549443543594
0.0005391959085833588
0.0003075600357388968
0.0006007684365458228
-0.004591754862277213
0.0006403102489032577
0.0001786854448250585
0.0006393983717477124
-0.0024096868709111985
0.0006142736937913269
0.0002356336280648845
0.0005729755350398166
0.0033692014350565017
0.0005059523000534985
4.6571957320013706e-05
0.0003934701652703312
-0.0021590653448199
0.00022972260344508792
0.00013038981951096087
1.0225550269046601e-05
-0.0011165518504117297
-0.0002210481553723741
0.0001134123267194836
-0.00033807491434768855
-0.0019442884295288298
-0.0006059015028918657
-5.067249960133475e-05
-0.0007890487363231464
0.0037829260542061906
-0.0009069253472866343
0.0002714361763804431
-0.0010842924165007754
-0.001654891652457165
-0.0013667732421866387
2.020872405512401e-05
-0.0017483812826191334
-0.004587083544800098
-0.002180381867853029
-0.00038886113439284977
-0.002613516227114692
-0.0015178504941003915
-0.003035631752941497
-0.00046425892471460345
-0.0034593679474044345
0.004051841840324204
-0.003889463494742806
-0.0002742868742493945
-0.004307577035636059
-0.0015205361899508767
-0.004690122798467927
-0.0005461424229818779
-0.005052776058638669
-0.0008543393393287892
-0.005422015093924721
-0.0006875478945231844
-0.005781478973970716
-0.0015266739871104456
-0.006075593232224565
-0.0007081694732157873
-0.006271131468787142
0.004629277997287471
-0.006385308354181624
-0.0007165686396120739
-0.006441087544402204
-0.0014732422030835825
-0.006432553940784989
-0.0006676788681689852
-0.0063341293515425095
-0.0017043390799999618
-0.006162494564066502
-0.0006593818269041228
-0.0059795762525975725
-0.0013284876752441169
-0.005832674472558695
-0.0008682846903217309
-0.005685241183086431
0.003964828541284152
-0.0054949081365974085
-0.0009963194977535479
-0.00527485653919952
-0.0010676886272056037
-0.0050716822643025
-0.0010345372903250859
-0.004886892213139613
0.001636845266963095
-0.004687329634429403
-0.0008956851740535551
-0.00444762009332543
-0.0009895372519626126
-0.004238421460469612
-0.000791242869950065
-0.0041430216422270825
0.004280362973396276
-0.004129901405515472
-0.0011565244665798118
-0.0041067010359881065
-0.0006760061166398955
-0.004020883228750942
-0.0013522162331336034
-0.003923423284265886
-0.0043477567926199735
-0.003832331118902221
-0.0012699549874596915
-0.0037311080147608543
-0.0003254553200986539
-0.003556223094212244
-0.001459814032686885
-0.003331580613484818
0.0047429817131922816
-0.0032455959549482155
-0.001526309827322506
-0.0032358738585991347
-0.0006521215854988791
-0.0032688855016899765
-0.0016415998261583623
-0.0032188577265462866
-0.001312344909250137
-0.003129492385309981
-0.0017700439309014245
-0.0030524419421268205
-0.0006361876710786778
-0.0028745823788113903
-0.0018972028534645362
-0.0026796552651098
0.004828380432426149
-0.002608159176766523
-0.0017081548028248874
-0.002707063435988562
-0.00038460809414314937
-0.0027286889745639755
-0.0017999734851235013
-0.0026191842634481805
-0.004121092334609256
-0.0025372649783914876
-0.0019684990603219647
-0.002487676288903605
-0.00016128713325260253
-0.0024640516837880176
-0.002103033688364178
-0.002288088247389323
0.004696509866923221
-0.0022575625532205027
-0.0023092532834714003
-0.002250798362487159
4.3301993621003114e-05
-0.0021419888137106068
-0.0023819543832042434
-0.002270088894682712
-0.0005117220792674057
-0.002217331695587286
-0.0025374357608363347
-0.00209790918292999
0.00035102275671414554
-0.0020581046083586007
-0.0024896678207217415
-0.001919015247019082
0.004375444120214597
-0.0018975840112356013
-0.0024585818705973547
-0.0019651967766143455
0.00013667084095883504
-0.001999640068454365
-0.0024309455057395213
-0.0020857214610608544
-0.00396507502555262
-0.0019468649429141688
-0.0026831922168314417
-0.002133696686704177
0.0005004715385901074
-0.0019863705972728955
-0.002933564264270956
-0.001782592035460867
-0.007408471230886478
-0.0016414713367749769
-0.003133564840752421
-0.001468819826452894
0.0006529322114420533
-0.001544917304874045
-0.0032280071770359854
-0.0015285377383453056
-0.0016304005646953729
-0.0014856542125697989
-0.003336625882294907
-0.001518675306645287
0.001031732548802783
-0.0016384646282302869
-0.003466664301445444
-0.001464991524439092
0.004367221170417625
-0.0017134991500556158
-0.003581078028126582
-0.0016061002888634196
0.0008836534823499963
-0.0015470842141460863
-0.0035913966398546005
-0.0017539299808443285
-0.0036171340314114495
-0.0014520532406588225
-0.0036279188517512385
-0.001530117097394902
0.000791501434283426
-0.0013240082246310239
-0.0037490785381274583
-0.0015082274325272052
0.0007380546954021958
-0.001334768896713013
-0.004005233766956688
-0.0015394934925497062
0.0008966166172066977
-0.0012836321997669407
-0.00422915497530917
-0.001746204742927666
-0.0003307007725835184
-0.0012959902080801585
-0.004412849921036659
-0.0017582587497751003
0.0013618760499308918
-0.0013292220711848307
-0.004613414410404122
-0.002018564047171691
0.003853256414585027
-0.0017676035536403865
-0.004842913306688256
-0.002500790331994691
0.0012306126797515457
-0.0023039600065040684
-0.005083747121485511
-0.0032008999957168216
-0.0032364243701569284
-0.0030168610944205435
-0.005287477283798609
-0.0035915233939547543
0.0015448966104645626
-0.0035659057595938065
-0.005468887307787744
-0.004258825436131114
-0.0029059574938755505
-0.00445519859491087
-0.005663824784836434
-0.004789388663456597
0.0015628123964076465
-0.005161113395743666
-0.005883485211557294
-0.006083068783084854
-0.0019555722146129425
-0.006702537640328381
-0.006056369501198698
-0.007720297970611169
0.001549357509210455
-0.008528216662524882
-0.00614115712499274
-0.00992225947016899
0.004150788009769233
-0.011032644485333129
-0.006158727682474755
-0.012396671035696234
0.0014108779711701214
-0.013407951607860145
-0.006125804357321936
-0.01468586269543568
-0.0027595362445029387
-0.01707706767271822
-0.0060300638358447576
-0.018736092790308467
0.0018576568310820687
-0.021125444746874174
-0.005848488337616158
-0.023062953968550303
0.004142965316297653
-0.024672968577960395
-0.005581337083531262
-0.026147914496787245
0.002087386205158121
-0.025446171050961454
-0.005259358791132538
-0.025682872180418086
0.0012419439039223577
-0.0251049763449537
-0.004917882204015458
-0.024249240343222782
0.0014010339369633716
-0.0228893555422384
-0.004552349734557109
-0.02125537110888642
0.004177321136760824
-0.019248919291201268
-0.004150620418636108
-0.017178907601692113
0.002174188801414645
-0.015854837612309595
-0.0037202982877696123
-0.014170817149519057
-0.0025226893472850786
-0.012618495665728566
-0.003293516203626005
-0.011292171568475605
0.0026682549007794737
-0.009891269897553373
-0.002875546704876351
-0.008845910465276713
0.0038897832239703765
-0.007669170935979276
-0.002460097552156433
-0.0069205782359075515
0.002677969038315193
-0.0058063472208940365
-0.002038719708758764
-0.0050035133966141645
-0.0024052772381712335
-0.0044929301339475996
-0.0016249209023569931
-0.004468824992267838
0.0025823468873011272
-0.0035694170025981505
-0.0012559218378372498
-0.003526529654482533
0.003157603893674915
-0.0028223903281152036
-0.0009666534795123101