# vtk DataFile Version 1.0
GRUMMP topologically 2D mesh
ASCII

DATASET UNSTRUCTURED_GRID
POINTS 6176 float
  1.0000000000000000   0.0000000000000000   0.0000000000000000
  0.9979736161243241   0.0002872981906159   0.0000000000000000
  0.9959038003591104   0.0005818082753016   0.0000000000000000
  0.9937894604158818   0.0008826109490225   0.0000000000000000
  0.9916311447855282   0.0011889740049165   0.0000000000000000
  0.9894256878168368   0.0015011074645448   0.0000000000000000
  0.9871732566523234   0.0018189104108560   0.0000000000000000
  0.9848739492731372   0.0021423104928037   0.0000000000000000
  0.9825241245750710   0.0024717658271048   0.0000000000000000
  0.9801244133260449   0.0028071825305054   0.0000000000000000
  0.9776732769852096   0.0031487906039340   0.0000000000000000
  0.9751690039483889   0.0034968357351786   0.0000000000000000
  0.9726117072730877   0.0038512643819321   0.0000000000000000
  0.9700001180350898   0.0042121148976419   0.0000000000000000
  0.9673332227148538   0.0045793859121594   0.0000000000000000
  0.9646079236541195   0.0049533708962095   0.0000000000000000
  0.9618249648196705   0.0053338679490647   0.0000000000000000
  0.9589807878895711   0.0057213439443832   0.0000000000000000
  0.9560767311296049   0.0061156062701256   0.0000000000000000
  0.9531120216710255   0.0065167463399167   0.0000000000000000
  0.9500819018783057   0.0069253778138591   0.0000000000000000
  0.9469876484068450   0.0073412143029309   0.0000000000000000
  0.9438286210030068   0.0077641908681895   0.0000000000000000
  0.9406001269296587   0.0081947829660712   0.0000000000000000
  0.9373041277084813   0.0086325757434285   0.0000000000000000
  0.9339368121646437   0.0090779560824189   0.0000000000000000
  0.9304976431076690   0.0095309377793780   0.0000000000000000
  0.9269838874379289   0.0099918267186165   0.0000000000000000
  0.9233965242394278   0.0104604374002928   0.0000000000000000
  0.9197323684717913   0.0109371203977286   0.0000000000000000
  0.9159901296799260   0.0114219111797446   0.0000000000000000
  0.9121662515702946   0.0119150917142392   0.0000000000000000
  0.9082612640703632   0.0124164093968364   0.0000000000000000
  0.9042711890176098   0.0129261849544228   0.0000000000000000
  0.9001985925103467   0.0134439182275261   0.0000000000000000
  0.8960367883853674   0.0139703538547480   0.0000000000000000
  0.8917881131106570   0.0145051006126241   0.0000000000000000
  0.8874465968544013   0.0150488093430172   0.0000000000000000
  0.8830132689405343   0.0156012428338051   0.0000000000000000
  0.8784843643309772   0.0161627200549514   0.0000000000000000
  0.8738585592690924   0.0167332093564690   0.0000000000000000
  0.8691331845657406   0.0173128340473851   0.0000000000000000
  0.8643080629784704   0.0179014022230632   0.0000000000000000
  0.8593790220315882   0.0184992057974382   0.0000000000000000
  0.8543443022105112   0.0191062525475961   0.0000000000000000
  0.8492020742372332   0.0197225542022908   0.0000000000000000
  0.8439504592998461   0.0203481184762133   0.0000000000000000
  0.8385847225217766   0.0209832807547837   0.0000000000000000
  0.8331043690503205   0.0216278714070098   0.0000000000000000
  0.8275075883744546   0.0222818740978654   0.0000000000000000
  0.8217896079901662   0.0229456038551552   0.0000000000000000
  0.8159499389768221   0.0236188617887649   0.0000000000000000
  0.8099850870934132   0.0243017702717010   0.0000000000000000
  0.8038929332928342   0.0249942623102002   0.0000000000000000
  0.7976697970229181   0.0256964297179088   0.0000000000000000
  0.7913134730328051   0.0264081777898121   0.0000000000000000
  0.7848218596203610   0.0271293903098903   0.0000000000000000
  0.7781898173908960   0.0278602762976724   0.0000000000000000
  0.7714169256365310   0.0286005013921829   0.0000000000000000
  0.7644979701754163   0.0293502351726533   0.0000000000000000
  0.7574308659438134   0.0301093068082177   0.0000000000000000
  0.7502135053150701   0.0308775557618342   0.0000000000000000
  0.7428404612557281   0.0316551512399728   0.0000000000000000
  0.7353096164115749   0.0324418730798164   0.0000000000000000
  0.7276172963491144   0.0332375368705936   0.0000000000000000
  0.7197598859172740   0.0340418579688506   0.0000000000000000
  0.7117355290536627   0.0348543282856948   0.0000000000000000
  0.7035389878799579   0.0356747811793425   0.0000000000000000
  0.6951650952820780   0.0365031090698871   0.0000000000000000
  0.6866122709923126   0.0373388258653197   0.0000000000000000
  0.6778754950330185   0.0381817369178559   0.0000000000000000
  0.6689534383202176   0.0390312029136988   0.0000000000000000
  0.6598376964403885   0.0398871771799410   0.0000000000000000
  0.6505290121117546   0.0407486821288951   0.0000000000000000
  0.6410191910005383   0.0416153892989160   0.0000000000000000
  0.6313056496470314   0.0424862165552765   0.0000000000000000
  0.6213823079172336   0.0433602824420315   0.0000000000000000
  0.6112489281649386   0.0442362457646169   0.0000000000000000
  0.6008963123926909   0.0451137308907019   0.0000000000000000
  0.5903211292528141   0.0459917803130241   0.0000000000000000
  0.5795184839365645   0.0468692540951747   0.0000000000000000
  0.5684857150099230   0.0477443424041717   0.0000000000000000
  0.5572148862675538   0.0486154402631608   0.0000000000000000
  0.5457024491672809   0.0494805599680832   0.0000000000000000
  0.5339780836677636   0.0503353194116202   0.0000000000000000
  0.5219860728183490   0.0511813660693644   0.0000000000000000
  0.5101253307512127   0.0519891081313360   0.0000000000000000
  0.4985043971600128   0.0527514649709832   0.0000000000000000
  0.4871181100865982   0.0534694955937708   0.0000000000000000
  0.4759663238182478   0.0541439373921026   0.0000000000000000
  0.4650424897306392   0.0547759224024376   0.0000000000000000
  0.4543414694194311   0.0553665338532900   0.0000000000000000
  0.4438615277983380   0.0559167464857066   0.0000000000000000
  0.4335966445555638   0.0564277439227250   0.0000000000000000
  0.4235422171719039   0.0569005367499369   0.0000000000000000
  0.4136931783754329   0.0573360485787389   0.0000000000000000
  0.4040479201781875   0.0577350333573017   0.0000000000000000
  0.3946007843384192   0.0580984587592611   0.0000000000000000
  0.3853459130056055   0.0584273588583778   0.0000000000000000
  0.3762828394437238   0.0587225582688298   0.0000000000000000
  0.3674052759622001   0.0589850521268143   0.0000000000000000
  0.3587104110044708   0.0592156767487264   0.0000000000000000
  0.3501952433465900   0.0594152538281565   0.0000000000000000
  0.3418548081050912   0.0595846279097528   0.0000000000000000
  0.3336858663230149   0.0597246577421592   0.0000000000000000
  0.3256868701986138   0.0598362486465025   0.0000000000000000
  0.3178507769372301   0.0599203474438374   0.0000000000000000
  0.3101776523444911   0.0599777679649948   0.0000000000000000
  0.3026620994593082   0.0600092896252224   0.0000000000000000
  0.2953022098091474   0.0600156089816429   0.0000000000000000
  0.2880942515540157   0.0599974067416477   0.0000000000000000
  0.2810344582773878   0.0599553507162620   0.0000000000000000
  0.2741224198462300   0.0598902308958287   0.0000000000000000
  0.2673508102792782   0.0598027829062179   0.0000000000000000
  0.2607208372897423   0.0596938009430880   0.0000000000000000
  0.2542268737219818   0.0595639532054747   0.0000000000000000
  0.2478699323930078   0.0594139942796022   0.0000000000000000
  0.2416426526986943   0.0592444560641495   0.0000000000000000
  0.2355443386744786   0.0590559928562533   0.0000000000000000
  0.2295742285057687   0.0588492600763349   0.0000000000000000
  0.2237267309732288   0.0586247739586633   0.0000000000000000
  0.2180011540540604   0.0583832555000465   0.0000000000000000
  0.2123936096745636   0.0581252700988444   0.0000000000000000
  0.2069018249031851   0.0578514118247249   0.0000000000000000
  0.2015265925874962   0.0575624139311738   0.0000000000000000
  0.1962639217171782   0.0572587327640815   0.0000000000000000
  0.1911098627978642   0.0569407701058159   0.0000000000000000
  0.1860635373512509   0.0566090833477142   0.0000000000000000
  0.1811225555455632   0.0562641183158228   0.0000000000000000
  0.1762831066659017   0.0559062017034564   0.0000000000000000
  0.1715472965099615   0.0555361405439852   0.0000000000000000
  0.1669099315072494   0.0551541804881659   0.0000000000000000
  0.1623702175183220   0.0547608759938091   0.0000000000000000
  0.1579259317985442   0.0543566416724963   0.0000000000000000
  0.1535748664842349   0.0539418626674859   0.0000000000000000
  0.1493147619729656   0.0535168899310313   0.0000000000000000
  0.1451447283274916   0.0530821904592715   0.0000000000000000
  0.1410625235604109   0.0526380756497570   0.0000000000000000
  0.1370659530359299   0.0521848322503466   0.0000000000000000
  0.1331567814638518   0.0517231967360234   0.0000000000000000
  0.1293276562313525   0.0512528455259629   0.0000000000000000
  0.1255804504092525   0.0507745502773552   0.0000000000000000
  0.1219131281255899   0.0502885988465475   0.0000000000000000
  0.1183237015509818   0.0497952534010120   0.0000000000000000
  0.1148102318092792   0.0492947513229479   0.0000000000000000
  0.1113720175725520   0.0487874812015910   0.0000000000000000
  0.1080070759532941   0.0482736140267307   0.0000000000000000
  0.1047146335147149   0.0477534816268928   0.0000000000000000
  0.1014927513745349   0.0472272179600503   0.0000000000000000
  0.0983395479756496   0.0466949369878610   0.0000000000000000
  0.0952554508934213   0.0461571322873805   0.0000000000000000
  0.0922363866432952   0.0456135046927440   0.0000000000000000
  0.0892828700951544   0.0450645654218522   0.0000000000000000
  0.0863942718297865   0.0445106297655928   0.0000000000000000
  0.0835678320075330   0.0439515803137779   0.0000000000000000
  0.0808019575920066   0.0433874837688950   0.0000000000000000
  0.0780971710598979   0.0428188278852694   0.0000000000000000
[...]
POINT_DATA 6176
SCALARS continuity float
LOOKUP_TABLE default
0.0024119180039548775
0.005879895362989615
0.005318300726258255
0.004917836160064354
0.004705829877549483
0.004572857942522592
0.004559215727279218
0.004399579287612052
0.004239523067658716
0.004125158318122756
0.003999363226554537
0.003898153811421199
0.0038685615668258883
0.003823144681514365
0.0038194908850841054
0.0038187724041401023
0.003732076493459286
0.0036575096493289987
0.00357136671123842
0.003528710335604472
0.0035455443276716132
0.0035610039072054836
0.0035875563263782695
0.0036473409130920653
0.0036764249555417696
0.0036515124563085153
0.0036104794322842173
0.003573732731814392
0.003559197266393132
0.00356086808583363
0.0035590825516105765
0.0035524702833820594
0.003549053657737475
0.003563987520815728
0.0035825419417207295
0.003558833207239913
0.003504882407518585
0.003423444935151766
0.0033814474805120586
0.0033782615010106883
0.003379474328781932
0.003388487453440648
0.0034100507324110957
0.0034085034175353308
0.0033740273268196277
0.0033241632226208534
0.003303277325623066
0.0033285915077211924
0.0033734255364121757
0.0034186139684332815
0.003466664619956975
0.0035027317105611753
0.003513714743444305
0.003510568424281468
0.0035261752880156047
0.0035838447891506785
0.003665909638678565
0.0037454562325617232
0.003816763241312465
0.0038755212099960213
0.003915894507906852
0.003947459471907681
0.003995211908553632
0.0040683075117447474
0.00415364543071279
0.004234847267501089
0.004311897346646863
0.0043870372370262145
0.004455716354415344
0.004511527981057906
0.004555672430607304
0.004599640572606413
0.004653740979885953
0.004715524252501195
0.004767644139500625
0.004796378199235227
0.004800354274424356
0.004784650081434287
0.004759444692576391
0.00473679755474004
0.004714198977862262
0.00467457103163008
0.004604607378365792
0.00450019557377041
0.004393846014398505
0.0044515182381437675
0.00434378204092522
0.004143787789098168
0.003983906919518265
0.0038212036701035126
0.0036255434121440235
0.0033928611025402533
0.0031353563410163807
0.002867320776730461
0.0025932711873814713
0.0023080485437259315
0.002012997362573517
0.0017211670551910655
0.0014429033183330168
0.0011689397995906653
0.0008817811406064446
0.0005793546746558931
0.0002752673361787566
-1.9400711671268233e-05
-0.0003073066877022313
-0.000590022662333777
-0.0008557369321358082
-0.0010918031734527104
-0.0013082594748287366
-0.0015257545381098963
-0.001747021797246267
-0.001957160239242253
-0.002142586535523714
-0.002304391029885739
-0.002450797539379485
-0.0025754668240214333
-0.002662842670972343
-0.002725795960694769
-0.0028025092568606195
-0.0028993338832174692
-0.0029890039473210676
-0.0030474294464396187
-0.0030787131021111015
-0.0030993674548985177
-0.003111688527761124
-0.0030935770841830673
-0.003039670280693755
-0.0030088379124531576
-0.0030474714110415406
-0.003107236819362358
-0.003138438255954215
-0.003120876892061525
-0.0030909662225376043
-0.003054674237406863
-0.00297626936716229
-0.0028994069439199108
-0.0029279408481270516
-0.002951737064825794
-0.002886704893601655
-0.0028113198366475807
-0.002754046084811527
-0.0027061826993874673
-0.0026608773582184188
-0.0025805480553269563
-0.0024395582725634263
-0.0023876983597461428
-0.002389760210106297
-0.0023258288496833465
-0.002200969998274118
-0.0020712409808737813
-0.0019721859103215018
-0.0018607986084318553
-0.0017578983492357325
-0.001672858885821303
-0.0016663070375879609
-0.001627014830402625
-0.0015256640215837705
-0.001395040684591984
-0.0012332882978090443
-0.001110252921352455
-0.0010277667356131995
-0.0009365572921554781
-0.0008613422508126292
-0.0008756483123089087
-0.0009115965981868422
-0.0008603597998487275
-0.0008343057303270816
-0.0007470378913647332
-0.0006560070613074667
-0.0005226126092536074
-0.00041336281994978647
-0.00022570476452018806
-0.000226238274363143
-0.00021666053948968698
-0.0002372663212067553
-0.0001853627937296821
-0.00014596258561423793
-8.14155698480008e-05
-0.00012779760165620784
-3.213103430826239e-05
-5.452075125584e-05
4.033643626122975e-05
0.00010434395933713354
0.0001736075325385324
0.00019534701994544272
0.00015949907148986802
0.00014185882199987176
2.832524723315395e-05
-2.1102556715765978e-05
-0.0002157084924723955
-0.00021107099309355636
-0.0003772165149492979
-0.0004222931461996264
-0.0005284967425208551
-0.0006500574828600844
-0.0008170690660880297
-0.0010240356208637994
-0.001278719444807452
-0.0015893451362163386
-0.0019454919178816322
-0.0022887551104214237
-0.0025764973358133186
-0.002921067171486731
-0.0034984437404888204
-0.004518317458555071
-0.0042732626609118685
-0.004884788073187613
-0.00533845303721929
-0.005897249957267786
-0.006387420089792612
-0.006319832746307282
-0.007047466223858431
-0.007110542385885026
-0.007106688152550873
-0.007056471898216345
-0.006952706458990781
-0.0068127680796068995
-0.007189249368489405
-0.00687920837581747
-0.006406675031566913
-0.006017492126719732
-0.005712711626749874
-0.00541142199305775
-0.0049749378703025674
-0.004499537834113398
-0.004073592060555265
-0.0035992675038613773
-0.0032013049107508023
-0.0029702386577422552
-0.0026373724092693695
-0.002450233099708849
-0.0021771938478772246
-0.0018090010833416229
-0.0016204951332475942
-0.0011801705176999052
-0.0009992937888774751
-0.000607181077831237
-0.0004621990011443847
-0.00016766049509998266
-5.278334767658005e-05
0.00018766542915026535
0.000320298385904502
0.0005377367656515232
0.0005923081728608066
0.0007955406918832546
0.0008359514456199773
0.0009925050358395237
0.0010266373994396877
0.0011213390771343213
0.0011363368848405738
0.0011393554002026018
0.0012023209985817724
0.0011008809826706756
0.0011677173253884007
0.0011838318454794978
0.0012543076975465857
0.001293541073572432
0.0013795121753962232
0.0014351103049381868
0.0015641228230619162
0.001620713190358134
0.0017215970404370997
0.0017397254697667883
0.001752812576667082
0.0017060797672076157
0.0015873539659964112
0.0014769816432790648
0.001452882687184219
0.0014153536825122423
0.001487170322872983
0.0015398676996661842
0.0015087897953360253
0.0014771329656696316
0.0014427179992923401
0.0013651453193287803
0.0012986033643620804
0.001277629819539885
0.0012544630882816291
0.001201075339478263
0.001114988527980697
0.0010469906475334384
0.0010024352350018135
0.000959502010961035
0.0009083995328779103
0.0008397091748535234
0.0007917442809549704
0.0008044876661942174
0.0008229794673907091
0.0008111773329928686
0.0007217609687581874
0.0006225194902127935
0.00054801015442679
0.0004769312087087749
0.00041405520978906815
0.00039155270468380326
0.0004008969813531696
0.00040690395885590854
0.00035655576337299474
0.0002754581984558393
0.00021142151921138124
0.00016423968885830194
0.00012214785551134134
9.782271276056892e-05
9.574113125130045e-05
0.00010598143175949663
0.00010783598880185676
9.583237724053734e-05
8.943556951689552e-05
9.887855216306694e-05
0.00011727611386818961
0.00014349067087384397
0.00018150306998563964
0.0002359282542945555
0.00030689464146784644
0.0003867426123325292
0.00047074753081942854
0.0005590446978834257
0.000663821791555132
0.0007936679702511342
0.0009441655003646382
0.0011083201289908585
0.00128221915406011
0.001459586816621298
0.001634144132999517
0.001808453018909277
0.0019884414223477697
0.0021762079069018218
0.002359365542248422
0.00252775594437448
0.002680725928943102
0.002818064396410509
0.002936920115429013
0.0030318378997171488
0.0030961378514066684
0.003124842337262724
0.0031191878580478275
0.0030926237156863137
0.0030754513544787023
0.002953910037765925
0.0027126165795863973
0.0026272683874553407
0.0025339405075725206
0.002410467429390035
0.002262797190146962
0.002105809432162674
0.0019522911935055242
0.001805080724515658
0.0016563548750528688
0.001501320150634134
0.0013410906551072222
0.0011760659646089142
0.001014884946843789
0.0008727982228792212
0.0007487338818633187
0.0006291676548701174
0.0005067196863565504
0.0003844966632859492
0.0002696561122535504
0.00016015639148018635
5.530398699698537e-05
-3.58942765220492e-05
-0.0001061947677116301
-0.00016067021407989657
-0.00021634768651113609
-0.0002799344265066113
-0.0003481719162737702
-0.0004199928060890175
-0.0004958052729373447
-0.0005525726982630691
-0.0005693830846296162
-0.0005760292305304788
-0.0006050766994340165
-0.000637766062109757
-0.000652084132839205
-0.0006498574543962717
-0.0006437853828958948
-0.0006459022943033922
-0.0006357495729750998
-0.0005719481078893952
-0.0004744200799951581
-0.00041618313756558526
-0.0003917208443826041
-0.0003570278086296753
-0.00030425872249060344
-0.0002462198527505435
-0.00019977239938396212
-0.00015721567192430026
-6.864724500169184e-05
6.750211665925306e-05
0.00016932592820055112
0.00024307081366948678
0.0002836852059270893
0.00033084741985857466
0.00038371264097276567
0.00043500882703019077
0.0005069786647615188
0.0006071294149107486
0.0006988212725934199
0.0007045036418422219
0.0007198349853517094
0.0007394506523820411
0.0007573370728222948
0.0007647540340169068
0.0007591057151788999
0.000758916881739213
0.0007983908579813576
0.000903432771309579
0.0009823647008969406
0.0010674863334520894
0.0010941180264919443
0.0011072756189727231
0.0011865824781500877
0.0012760057214501594
0.0014551466911503857
0.0016661672342261353
0.0019078297197642428
0.002204938212622658
0.0025029319208090396
0.0027198546976128037
0.0031377115271040527
0.0037775452178294426
0.0041851375751366035
0.004681968977793606
0.005844759329735738
0.005864513896316382
0.004217690732516607
0.006143165022643242
0.00864624513547992
0.007043372611782133
0.00517126451431878
0.004869835220269138
-0.002251744993832624
0.00502120600264426
-0.006144746647673111
0.004718730125755263
0.0004003019069745224
0.0045666601802875715
-0.005809905505142921
0.004481729478780035
-0.002538522879551915
0.004510264990145324
-0.005515978761237618
0.004413314852753933
-0.004486431682543618
0.004209902042782534
-0.005249627948479917
0.004080457918066266
-0.0027835181551587205
0.003959372190348562
-0.0048682753833186355
0.003867408175378717
-0.0019018416821619305
0.00381745204741848
-0.004793252035670066
0.0037792584622856245
-0.002982530698766014
0.0037949580697980616
-0.00430203371875414
0.0037805936642404006
-0.004725556418533172
0.003704084184045041
-0.004299114350875324
0.0036218019743681313
-0.0032188781137754913
0.0035513132821095804
-0.003837708754480445
0.0035100889190134545
-0.004486308747011455
0.003513458366240349
-0.0039047767526174306
0.0035304097448757756
-0.003464340242584945
0.0035750120475225708
-0.003507709360283039
0.0036288023520702982
-0.004548708509583148
0.003629286447803004
-0.0037688025933545507
0.003603361597194087
-0.0037107304300414384
0.0035668351871013335
-0.0033218066079188876
0.003540558087521266
-0.002054909138215744
0.0035334061840632197
-0.0035804765455179246
0.003532809402708511
-0.003893343422280273
0.003530833116810746
-0.003089840646418794
0.0035280873158672786
-0.004616063028111194
0.003530518564994101
-0.003392190609923933
0.0035556799963841848
-0.004049290429588492
0.0035575490265878297
-0.0032090135007130476
0.0035338919668708437
-0.0017103160339565983
0.0034648768516936145
-0.0031290648443447235
0.003398030876716106
-0.004198058524892822
0.003363369428571216
-0.00303892730579973
0.003357972167237156
-0.004908898482169831
0.003357515906813024
-0.0029923110459411694
0.0033709042232318628
-0.004351675519838374
0.0033839722932739783
-0.0029856570552359695
0.003370372725766053
-0.0022820720532330512
0.0033353533576457924
-0.0029515955204725075
0.00329051881055471
-0.004450372891765388
0.0032845915450296494
-0.0030169210866567487
0.0033131461996636414
-0.004871948329043963
0.0033513878130143728
-0.0030521998188828186
0.003397659332245594
-0.004516136569789761
0.003443877908189137
-0.0035486890998421314
0.003471108343991378
-0.004044031376057563
0.0034760714200738115
-0.0027522048948180893
0.0034750329768324273
-0.004627131598278204
0.0035039230098368626
-0.003619011335965142
0.00356917885829831
-0.005399956142595053
0.003647690258896987
-0.002848153933266156
0.0037244438723950286
-0.004790821574605913
0.0037943552183716247
-0.003215523637769038
0.003847252224192558
-0.002587673058873742
0.0038833025879121373
-0.003254595915480201
0.003918443823707339
-0.004909252083709847
0.003974173540411431
-0.003233701070653772
0.004051065914971129
-0.005517173187638333
0.0041327015722997795
-0.0032244251448049965
0.004211493430607374
-0.00501673619371745
0.0042876251816787595
-0.0032032733027755403
0.004360852271662193
0.006309338298875712
0.004426253337771815
-0.0030871143354463545
0.004477649082224441
-0.005070881693499014
0.00451952972411497
-0.003175478813515023
0.0045656202262353025
-0.005623415163408283
0.0046236367550653015
-0.003273169155567798
0.004684043627407959
-0.005141408961078606
0.004729994276970026
-0.0035488208523137684
0.004750800975204533
-0.002873364163782632
0.004748128259481687
-0.0030436536424685297
0.004727718019091032
-0.005219072374605832
0.004702428071510072
-0.003554135891489406
0.004680097601978786
-0.005805263479676683
0.004653437084980365
-0.0031593840777802843
0.004605876691826287
-0.005244665252637495
0.004527358820879178
-0.003700329115230958
0.0044197536292096395
-0.0036681580476129972
0.0043192690360156
-0.003861359135359078
0.004394008229646417
-0.0051229162226614075
0.004343977124714065
-0.003430677610277428
0.004138611476015671
-0.005915024510711807
0.003982347108612846
-0.0036579292191586447
0.0038222530693984413
-0.0052961352668074585
0.0036317401882316174
-0.0034048840809602315
0.003403240029988075
-0.0031507318554658877
0.003144764293234673
-0.003272325590606539
0.0028714783998496918
-0.005385187831618582
0.002593058014562523
-0.003217417293675208
0.0023063357386272757
-0.006078358340110653
0.0020081207123393073
-0.0035765534840409468
0.0017084141846543956
-0.0055977708116984595
0.0014224013550399337
-0.003375536143622821
0.0011467662989418494
-0.0019096122535897148
0.000862413114838141
-0.0036607827033021266
0.0005600570890830131
-0.0055847484941615715
0.0002493594179301722
-0.0039412620253510035
-5.48704951594918e-05
-0.006095730913473985
-0.0003476237492522327
-0.003900321550229495
-0.0006342863990660252
-0.005651305434614084
-0.0009090358675273332
-0.0037734281820804
-0.0011587954213036938
-0.003454634538863203
-0.0013809131645885074
-0.003907286021412842
-0.00159628587767593
-0.0057201896904242955
-0.001820111180142694
-0.0038918772482961573
-0.0020398354479437683
-0.0066630225388429574
-0.0022382370895598067
-0.003879519561339355
-0.00240742828660727
-0.005720862992891889
-0.002557848323404053
-0.003935156466922845
-0.002690930130131177
0.0019595340625531772
-0.002797765541860598
-0.004109162572124118
-0.0028731736650991677
-0.005504280799935888
-0.0029447396912512212
-0.004236361498002579
-0.0030406983971954494
-0.006759526912442964
-0.0031408437961439684
-0.0042363258931061385
-0.003217676615778413
-0.005803805693805043
-0.0032587669245058735
-0.004016199505191826
-0.0032841365713540635
-0.00335012452963122
-0.003299635055973773
-0.004303025488751409
-0.0033010966558999597
-0.006018936340982572
-0.0032743206134455125
-0.0043399302144546525
-0.003240301377974013
-0.006855327872011876
-0.003277591465065512
-0.004305018981172909
-0.003339190164983548
-0.005772789344144995
-0.00339068364039676
-0.004280641532963061
-0.0033948258094399367
-0.0035614895040585477
-0.0033722446614632916
-0.004290369538361223
-0.003350295462420302
-0.005793429568626592
-0.0033050805964508897
-0.004325718064632894
-0.0032538937592522478
-0.006790057803180272
-0.0032406579852169944
-0.004431505542280803
-0.0032722851051214027
-0.0058080626547529135
-0.003247473797356725
-0.004283433107094377
-0.003180060580289699
-0.0035734312125767125
-0.003133995008574389
-0.004151531803925543
-0.0031039886205178713
-0.005897033091943775
-0.0030756447375170515
-0.004306697631502058
-0.0030068859798554905
-0.0070079101703755305
-0.002842537365347777
-0.004339843982888245
-0.002871019594494776
-0.006033054031344394
-0.002887881824732793
-0.0043269186731427
-0.0027321997389066818
0.0007118579137294499
-0.0026481450740762982
-0.004322363630100114
-0.002526440328670084
-0.0060693073233449866
-0.002452950189106374
-0.0042590312028262835
-0.002368492169382101
-0.0070098971509435885
-0.0023219641288934278
-0.004197124730527931
-0.0021019454359508727
-0.005845116275017986
-0.0022623455488852357
-0.004094780288327113
-0.002153949104312607
-0.0038428444579721474
-0.002055599722936694
-0.004060450158371334
-0.001962237477706618
-0.006112937961980613
-0.001738077843195323
-0.004065276478502369
-0.0016613022138140428
-0.001823710991126129
-0.0016371678812571412
-0.0040695135964709086
-0.0016149917507236535
-0.005896036398602705
-0.001373104764810336
-0.004037179398870678
-0.0016611650368820894
-0.0033756018808443417
-0.0015850294402177168
-0.004003029136372117
-0.001473556760444615
-0.00577433827307749
-0.0014527299304062415
-0.003963824936245534
-0.0013353914336459286
-0.007005732211992244
-0.0012849238685986703
-0.003906614422480005
-0.0011311792569563945
-0.005762275825871856
-0.0012183100340557858
-0.003793185989774844
-0.0007029423970295489
-0.0039892650154001955
-0.0009999545564812972
-0.003672732548246012
-0.0007054742128777702
-0.0056266427485726685
-0.0010484568009211167
-0.003561906819741109
-0.0007104160752452195
0.0014274871913446054
-0.0010223898749317044
-0.003493707780175145
-0.0006167961259338804
-0.00575824348640954
-0.0011236602151020625
-0.0033993026491057625
-0.000574682727628456
-0.0018372743394756068
-0.0010630204841831595
-0.0032695337902739962
-0.00043882291232629443
-0.005867586299036474
-0.0009173533951640915
-0.0031280660859428658
-0.0002690976728185105
-0.007028622211857147
-0.0008335817450258662
-0.002969605288514866
-0.00026078453115494627
-0.005761021882292858
-0.0008837822540476354
-0.0027896550987875227
-0.0003777506359662798
-0.004063768122708253
-0.0010354586091684123
-0.0025730879318776583
-0.0006920058910826385
-0.0061969707923163145
-0.0009834623514984324
-0.0023426366426416816
-0.000911502521623498
-0.0034329068873251217
-0.0009972342006127003
-0.0021167694299465997
-0.00107526151712189
-0.006072868972539288
-0.0012163316735577256
-0.0019040857913338756
-0.0013450962382755465
-0.003151855178676905
-0.001534940496354048
-0.0016675654409515422
-0.0018088844304128705
-0.005763119710547505
-0.0021193074470814964
-0.0013975823677144386
-0.0025305399167091895
-0.007321797042982795
-0.0029613470676572488
-0.0011121317015423584
-0.0034581170529469868
-0.005194197215476633
-0.0039514485693084985
-0.0008177944592017393
-0.004548305168286479
-0.0041863428688498575
-0.004983376225862029
-0.0005139750117091858
-0.005835167620768503
-0.00565634466715006
-0.0063213822161180015
-0.00019647306211390263
-0.006739843234533997
-0.007443796435287422
-0.007293146937966137
0.00012191932049226717
-0.007711248600054853
-0.005345804326393095
-0.007781519507714749
0.0004272920860277977
-0.008234271259205691
0.009723593995551288
-0.00841224244312441
0.0007152623311627467
-0.008477457379765766
-0.005250601560521975
-0.008482090937071928
0.001005341699764131
-0.0084848176245577
-0.00735799698594143
-0.008424349822358136
0.0013116475234416058
-0.008084046391893376
-0.005673858284382276
-0.007951779001406065
0.001626308961372994
-0.007733316083355921
-0.00438133279179288
-0.007126810993869653
0.001934350967055337
-0.006683710562954602
-0.005954520373007283
-0.00617801892489649
0.00223139525483212
-0.00565702460706253
-0.007359603916149771
-0.005050297086555733
0.002522719285149251
-0.004615635339591208
-0.006072845730077468
-0.004139152638626581
0.0028052030759179764
-0.0037768264215117886
-0.003130124803581048
-0.0036859255609346156
0.003070065411123651
-0.0030106139459639973
-0.006015121316339162
-0.00317560703337816
0.0033068280737822827
-0.00253927028985704
-0.007272565459263202
-0.002815551524000459
0.003513600675504438
-0.00197107976528585
0.002935780410585921
-0.002228292771595728
0.003694567656336217
-0.0013853334441836567
-0.0047778741216945465
-0.0016759988545343245
0.003849310106348087