# vtk DataFile Version 1.0
GRUMMP topologically 2D mesh
ASCII

DATASET UNSTRUCTURED_GRID
POINTS 6176 float
  1.0000000000000000   0.0000000000000000   0.0000000000000000
  0.9979736161243241   0.0002872981906159   0.0000000000000000
  0.9959038003591104   0.0005818082753016   0.0000000000000000
  0.9937894604158818   0.0008826109490225   0.0000000000000000
  0.9916311447855282   0.0011889740049165   0.0000000000000000
  0.9894256878168368   0.0015011074645448   0.0000000000000000
  0.9871732566523234   0.0018189104108560   0.0000000000000000
  0.9848739492731372   0.0021423104928037   0.0000000000000000
  0.9825241245750710   0.0024717658271048   0.0000000000000000
  0.9801244133260449   0.0028071825305054   0.0000000000000000
  0.9776732769852096   0.0031487906039340   0.0000000000000000
  0.9751690039483889   0.0034968357351786   0.0000000000000000
  0.9726117072730877   0.0038512643819321   0.0000000000000000
  0.9700001180350898   0.0042121148976419   0.0000000000000000
  0.9673332227148538   0.0045793859121594   0.0000000000000000
  0.9646079236541195   0.0049533708962095   0.0000000000000000
  0.9618249648196705   0.0053338679490647   0.0000000000000000
  0.9589807878895711   0.0057213439443832   0.0000000000000000
  0.9560767311296049   0.0061156062701256   0.0000000000000000
  0.9531120216710255   0.0065167463399167   0.0000000000000000
  0.9500819018783057   0.0069253778138591   0.0000000000000000
  0.9469876484068450   0.0073412143029309   0.0000000000000000
  0.9438286210030068   0.0077641908681895   0.0000000000000000
  0.9406001269296587   0.0081947829660712   0.0000000000000000
  0.9373041277084813   0.0086325757434285   0.0000000000000000
  0.9339368121646437   0.0090779560824189   0.0000000000000000
  0.9304976431076690   0.0095309377793780   0.0000000000000000
  0.9269838874379289   0.0099918267186165   0.0000000000000000
  0.9233965242394278   0.0104604374002928   0.0000000000000000
  0.9197323684717913   0.0109371203977286   0.0000000000000000
  0.9159901296799260   0.0114219111797446   0.0000000000000000
  0.9121662515702946   0.0119150917142392   0.0000000000000000
  0.9082612640703632   0.0124164093968364   0.0000000000000000
  0.9042711890176098   0.0129261849544228   0.0000000000000000
  0.9001985925103467   0.0134439182275261   0.0000000000000000
  0.8960367883853674   0.0139703538547480   0.0000000000000000
  0.8917881131106570   0.0145051006126241   0.0000000000000000
  0.8874465968544013   0.0150488093430172   0.0000000000000000
  0.8830132689405343   0.0156012428338051   0.0000000000000000
  0.8784843643309772   0.0161627200549514   0.0000000000000000
  0.8738585592690924   0.0167332093564690   0.0000000000000000
  0.8691331845657406   0.0173128340473851   0.0000000000000000
  0.8643080629784704   0.0179014022230632   0.0000000000000000
  0.8593790220315882   0.0184992057974382   0.0000000000000000
  0.8543443022105112   0.0191062525475961   0.0000000000000000
  0.8492020742372332   0.0197225542022908   0.0000000000000000
  0.8439504592998461   0.0203481184762133   0.0000000000000000
  0.8385847225217766   0.0209832807547837   0.0000000000000000
  0.8331043690503205   0.0216278714070098   0.0000000000000000
  0.8275075883744546   0.0222818740978654   0.0000000000000000
  0.8217896079901662   0.0229456038551552   0.0000000000000000
  0.8159499389768221   0.0236188617887649   0.0000000000000000
  0.8099850870934132   0.0243017702717010   0.0000000000000000
  0.8038929332928342   0.0249942623102002   0.0000000000000000
  0.7976697970229181   0.0256964297179088   0.0000000000000000
  0.7913134730328051   0.0264081777898121   0.0000000000000000
  0.7848218596203610   0.0271293903098903   0.0000000000000000
  0.7781898173908960   0.0278602762976724   0.0000000000000000
  0.7714169256365310   0.0286005013921829   0.0000000000000000
  0.7644979701754163   0.0293502351726533   0.0000000000000000
  0.7574308659438134   0.0301093068082177   0.0000000000000000
  0.7502135053150701   0.0308775557618342   0.0000000000000000
  0.7428404612557281   0.0316551512399728   0.0000000000000000
  0.7353096164115749   0.0324418730798164   0.0000000000000000
  0.7276172963491144   0.0332375368705936   0.0000000000000000
  0.7197598859172740   0.0340418579688506   0.0000000000000000
  0.7117355290536627   0.0348543282856948   0.0000000000000000
  0.7035389878799579   0.0356747811793425   0.0000000000000000
  0.6951650952820780   0.0365031090698871   0.0000000000000000
  0.6866122709923126   0.0373388258653197   0.0000000000000000
  0.6778754950330185   0.0381817369178559   0.0000000000000000
  0.6689534383202176   0.0390312029136988   0.0000000000000000
  0.6598376964403885   0.0398871771799410   0.0000000000000000
  0.6505290121117546   0.0407486821288951   0.0000000000000000
  0.6410191910005383   0.0416153892989160   0.0000000000000000
  0.6313056496470314   0.0424862165552765   0.0000000000000000
  0.6213823079172336   0.0433602824420315   0.0000000000000000
  0.6112489281649386   0.0442362457646169   0.0000000000000000
  0.6008963123926909   0.0451137308907019   0.0000000000000000
  0.5903211292528141   0.0459917803130241   0.0000000000000000
  0.5795184839365645   0.0468692540951747   0.0000000000000000
  0.5684857150099230   0.0477443424041717   0.0000000000000000
  0.5572148862675538   0.0486154402631608   0.0000000000000000
  0.5457024491672809   0.0494805599680832   0.0000000000000000
  0.5339780836677636   0.0503353194116202   0.0000000000000000
  0.5219860728183490   0.0511813660693644   0.0000000000000000
  0.5101253307512127   0.0519891081313360   0.0000000000000000
  0.4985043971600128   0.0527514649709832   0.0000000000000000
  0.4871181100865982   0.0534694955937708   0.0000000000000000
  0.4759663238182478   0.0541439373921026   0.0000000000000000
  0.4650424897306392   0.0547759224024376   0.0000000000000000
  0.4543414694194311   0.0553665338532900   0.0000000000000000
  0.4438615277983380   0.0559167464857066   0.0000000000000000
  0.4335966445555638   0.0564277439227250   0.0000000000000000
  0.4235422171719039   0.0569005367499369   0.0000000000000000
  0.4136931783754329   0.0573360485787389   0.0000000000000000
  0.4040479201781875   0.0577350333573017   0.0000000000000000
  0.3946007843384192   0.0580984587592611   0.0000000000000000
  0.3853459130056055   0.0584273588583778   0.0000000000000000
  0.3762828394437238   0.0587225582688298   0.0000000000000000
  0.3674052759622001   0.0589850521268143   0.0000000000000000
  0.3587104110044708   0.0592156767487264   0.0000000000000000
  0.3501952433465900   0.0594152538281565   0.0000000000000000
  0.3418548081050912   0.0595846279097528   0.0000000000000000
  0.3336858663230149   0.0597246577421592   0.0000000000000000
  0.3256868701986138   0.0598362486465025   0.0000000000000000
  0.3178507769372301   0.0599203474438374   0.0000000000000000
  0.3101776523444911   0.0599777679649948   0.0000000000000000
  0.3026620994593082   0.0600092896252224   0.0000000000000000
  0.2953022098091474   0.0600156089816429   0.0000000000000000
  0.2880942515540157   0.0599974067416477   0.0000000000000000
  0.2810344582773878   0.0599553507162620   0.0000000000000000
  0.2741224198462300   0.0598902308958287   0.0000000000000000
  0.2673508102792782   0.0598027829062179   0.0000000000000000
  0.2607208372897423   0.0596938009430880   0.0000000000000000
  0.2542268737219818   0.0595639532054747   0.0000000000000000
  0.2478699323930078   0.0594139942796022   0.0000000000000000
  0.2416426526986943   0.0592444560641495   0.0000000000000000
  0.2355443386744786   0.0590559928562533   0.0000000000000000
  0.2295742285057687   0.0588492600763349   0.0000000000000000
  0.2237267309732288   0.0586247739586633   0.0000000000000000
  0.2180011540540604   0.0583832555000465   0.0000000000000000
  0.2123936096745636   0.0581252700988444   0.0000000000000000
  0.2069018249031851   0.0578514118247249   0.0000000000000000
  0.2015265925874962   0.0575624139311738   0.0000000000000000
  0.1962639217171782   0.0572587327640815   0.0000000000000000
  0.1911098627978642   0.0569407701058159   0.0000000000000000
  0.1860635373512509   0.0566090833477142   0.0000000000000000
  0.1811225555455632   0.0562641183158228   0.0000000000000000
  0.1762831066659017   0.0559062017034564   0.0000000000000000
  0.1715472965099615   0.0555361405439852   0.0000000000000000
  0.1669099315072494   0.0551541804881659   0.0000000000000000
  0.1623702175183220   0.0547608759938091   0.0000000000000000
  0.1579259317985442   0.0543566416724963   0.0000000000000000
  0.1535748664842349   0.0539418626674859   0.0000000000000000
  0.1493147619729656   0.0535168899310313   0.0000000000000000
  0.1451447283274916   0.0530821904592715   0.0000000000000000
  0.1410625235604109   0.0526380756497570   0.0000000000000000
  0.1370659530359299   0.0521848322503466   0.0000000000000000
  0.1331567814638518   0.0517231967360234   0.0000000000000000
  0.1293276562313525   0.0512528455259629   0.0000000000000000
  0.1255804504092525   0.0507745502773552   0.0000000000000000
  0.1219131281255899   0.0502885988465475   0.0000000000000000
  0.1183237015509818   0.0497952534010120   0.0000000000000000
  0.1148102318092792   0.0492947513229479   0.0000000000000000
  0.1113720175725520   0.0487874812015910   0.0000000000000000
  0.1080070759532941   0.0482736140267307   0.0000000000000000
  0.1047146335147149   0.0477534816268928   0.0000000000000000
  0.1014927513745349   0.0472272179600503   0.0000000000000000
  0.0983395479756496   0.0466949369878610   0.0000000000000000
  0.0952554508934213   0.0461571322873805   0.0000000000000000
  0.0922363866432952   0.0456135046927440   0.0000000000000000
  0.0892828700951544   0.0450645654218522   0.0000000000000000
  0.0863942718297865   0.0445106297655928   0.0000000000000000
  0.0835678320075330   0.0439515803137779   0.0000000000000000
  0.0808019575920066   0.0433874837688950   0.0000000000000000
  0.0780971710598979   0.0428188278852694   0.0000000000000000
[...]
POINT_DATA 6176
SCALARS continuity float
LOOKUP_TABLE default
0.0012562264979821137
5.3539022352434936e-05
6.78382964256095e-05
4.511015483062981e-05
4.926064250153374e-05
5.640555680872664e-05
8.018914719836511e-05
9.105292946287873e-05
9.99854846144074e-05
0.0001110304500359715
0.00011951463104949958
0.0001264014463278609
0.0001407363505095097
0.0001518657521234219
0.00016465941830350034
0.00017593630301978154
0.00017746410348514684
0.00017745645573875654
0.00017464214738654408
0.0001727270748006301
0.00017561397955591915
0.00017770870124731269
0.00017873581117733802
0.00018041952421444366
0.00017681119750424915
0.00016688189976917599
0.00015379858610079476
0.00014149436863634498
0.00013168724233192743
0.00012399419797764913
0.00011562228832941193
0.00010557156910313954
9.459653778202597e-05
8.551081646059511e-05
7.669413672039884e-05
6.283370615929585e-05
4.586234944009073e-05
2.6507429965027926e-05
1.4068193792415436e-05
7.917226029077937e-06
1.597004348083011e-06
-5.888958145522943e-06
-1.3319593250155734e-05
-2.3939357463910325e-05
-3.869135792648232e-05
-5.545116496494406e-05
-6.89996953397011e-05
-7.756487748215452e-05
-8.633284779950473e-05
-9.85311577453213e-05
-0.00011194202132013787
-0.00012638726365152628
-0.0001434078710502932
-0.00016278511676029464
-0.00018175982726541346
-0.00019887077653303741
-0.00021782386964234356
-0.00024189896541468485
-0.0002690440792729706
-0.0002971389426140507
-0.000325689618102492
-0.0003545588199006511
-0.0003832164547901522
-0.00041341077080927975
-0.00044787995218862774
-0.00048674919170112174
-0.0005275180555072673
-0.0005690089482049857
-0.0006119925523815947
-0.000656435832577506
-0.0007006422777756075
-0.0007435135185172495
-0.0007874305838634358
-0.000837331361484638
-0.0008953422505519021
-0.000957155365500763
-0.001017069331632968
-0.0010718144946130661
-0.0011206049730268686
-0.001164746315749085
-0.0012090111617783735
-0.001256613596610654
-0.0013061027894483727
-0.0013537315391181958
-0.0013956096150662001
-0.001420846988693458
-0.0014431315302238816
-0.0014569117675294603
-0.001459445664476544
-0.0014550664724982667
-0.0014435463255205209
-0.001423964798225979
-0.0013954889804551978
-0.0013574880444106093
-0.0013094187121706793
-0.0012508651756958026
-0.0011816472436280688
-0.0011020714006030464
-0.0010133361591548539
-0.0009169430955240001
-0.0008144104180569617
-0.0007060747028917307
-0.0005917585614618717
-0.00047154519673780283
-0.0003465919029186296
-0.00021777294441008654
-8.555878756531813e-05
4.8739605641870485e-05
0.0001826385202556744
0.0003124740430248201
0.00043698619202388425
0.0005570837371625675
0.0006740449911506853
0.0007871616940427184
0.0008957018261780687
0.001000806818848879
0.0011040164680207862
0.001203837881694082
0.0012958499665784435
0.0013771463075249273
0.0014513292961013191
0.001523352858882821
0.0015937739577484963
0.0016604769481289373
0.0017237246145252083
0.0017869406957943795
0.0018520261129927706
0.0019124756904321755
0.0019595339225133212
0.0019943658181247794
0.002023511184439422
0.0020535671127740896
0.0020824209601330496
0.002110529880670581
0.0021441232431811965
0.002182711696463049
0.0021997983468825615
0.0021968828966612217
0.0021974558757236677
0.00220153659249905
0.0022026939625039
0.002198830850311986
0.002191307791677456
0.002189620185232771
0.00220544660153325
0.0022193797195841883
0.0021965260207792007
0.0021550178524931693
0.0021245199870773683
0.0020986127707300593
0.0020700098100335873
0.0020463966920260656
0.002024638886182958
0.002049490210855912
0.002006861765500482
0.001976343244738178
0.0019324598923042022
0.0018815772683932817
0.0018389352659845106
0.0018036463873154097
0.0017523069430830198
0.0016949190980209852
0.0017126945681176157
0.0016626775794717497
0.0016184738582773754
0.0015766034747866106
0.0015332422469965014
0.0014752251211276029
0.0014188623912863394
0.0013569178541157762
0.0012637183526806655
0.0012334575355164082
0.0011990068448449799
0.0011631117054944529
0.0011102005040306295
0.0010591055103286603
0.0009879320645207429
0.000996737990382306
0.0008838687987277368
0.0008648054942640142
0.000754384664079184
0.0007201137361885426
0.0005986605123240581
0.000579101782526885
0.00046806368633784133
0.0004531976332707789
0.0003537628307808255
0.0003361488104851938
0.0002414873691252669
0.00022440798458748618
0.00011470609000499045
4.189624400122239e-05
-1.351118651661813e-05
-9.528838320428048e-05
-0.0001749521122249238
-0.0002505322708972944
-0.00031032343456011455
-0.0003833205998014752
-0.0004470937090313417
-0.0005145057067870954
-0.0005658869727902571
-0.0006277104877839509
-0.0006862418299245135
-0.0007379569283691474
-0.0007261859423979971
-0.0007098443054042412
-0.0007734746821123609
-0.0007888777525944167
-0.0007729182737699149
-0.0007578393089449907
-0.0007334611169345725
-0.0006689325573414576
-0.0006515938542115479
-0.0006179647095848902
-0.0005710951201028352
-0.0004615879146746313
-0.0002947172602923469
-0.0002246867149008816
-0.00018852549727792377
-0.000127071014123639
1.3355732232747377e-05
0.00017602808200776893
0.0002896592704279464
0.00036322994410551747
0.00046303003840465426
0.0005441524138463588
0.000630470398163604
0.0007398165574227195
0.0008078341334139994
0.0009043262236771229
0.0009356231624729106
0.001027842345581656
0.001083956827433764
0.001155116227051581
0.001136962524490116
0.0012165814450624166
0.0011979105098669101
0.0012821751981608454
0.0012671181004937156
0.0013531017907265934
0.0013351049817174826
0.0014136736714069897
0.0013795507018125608
0.0014594987140605763
0.0014260932810689884
0.0015114019187125734
0.001482591502603737
0.001573754728364488
0.0015459466013313687
0.0015795948112342342
0.001601112058061393
0.0016340607334766602
0.0016198009138841205
0.001654408808927389
0.001667021534467857
0.0016781029170726614
0.0016797352008829126
0.0016739060010265273
0.0016682774923748112
0.0016711239435326078
0.0017008673560409864
0.0016619981089372221
0.0016790825030191456
0.0016824787168349367
0.0016796595461223297
0.0016924265484558106
0.001698389835163263
0.0016911111556541095
0.0016714228009653573
0.0016538917316471513
0.0016517796431231198
0.0015988224745900866
0.0015884066108805496
0.0015794551952411154
0.001570161004479074
0.001571118024632001
0.0015664820983237538
0.0015382615357868057
0.0014961001451390555
0.0014585053947306847
0.001425035974982621
0.0013933824822835066
0.0013599213049959198
0.001324282067349784
0.0012873843938007415
0.0012511734134448276
0.0012138924825170886
0.0011664425169622913
0.001107409164736186
0.0010416494577471722
0.0009775306576998155
0.0009161283938432329
0.0008555127610712093
0.000794509492249338
0.000733492408355584
0.0006685241999674189
0.0005960966948040763
0.0005165559258786745
0.00043363649347602246
0.0003502872743634262
0.0002674084227868447
0.0001840920185102961
0.00010029550905422809
1.4403642086260572e-05
-7.54409145763552e-05
-0.0001703775674761923
-0.0002689191489954822
-0.0003703405970327061
-0.0004738217444542458
-0.0005796883029118639
-0.0006887564132788633
-0.0008007732740994991
-0.0009150066646812025
-0.0010320828568304101
-0.0011524638572707894
-0.001275488805941201
-0.0013992609002579275
-0.0015216012995718346
-0.0016406713742747666
-0.0017535503462017968
-0.0018585434481486753
-0.001954806119449267
-0.0020422113275913698
-0.0021213155732002446
-0.0021919231928043837
-0.0022527846281193186
-0.0023023179701562118
-0.002339901487808443
-0.0023654132619932485
-0.002378411971338649
-0.0023785433303578963
-0.002366736041156846
-0.00234441489149865
-0.002312116130899262
-0.002270396582538836
-0.002220321027417758
-0.0021618537292609455
-0.0020920711229740646
-0.0020180699482424775
-0.001941404930043292
-0.0018450500484822482
-0.001745461364485
-0.001647753111149089
-0.0015538530811395586
-0.0014637361118067956
-0.0013747503760926445
-0.0012845306268253437
-0.0011928844393560626
-0.0011013325736785426
-0.0010131126938553114
-0.0009321822102394051
-0.0008586915558708475
-0.0007886332781151563
-0.0007199947949457271
-0.0006536094649209882
-0.0005897550877152411
-0.0005275155768614741
-0.0004665172757432248
-0.0004092384905060166
-0.0003577661270500139
-0.0003100885667007323
-0.00026267886494911734
-0.00021552592132439
-0.00017072056183702427
-0.00012974798678079734
-9.317861055245929e-05
-6.275617399398114e-05
-3.843016253692147e-05
-1.3833700354469486e-05
1.4616162012977368e-05
4.1165097598082925e-05
6.0439749304051805e-05
7.629008549182056e-05
9.24030062043973e-05
0.00010789790855892711
0.00011972478613994487
0.0001268381970861263
0.0001355280864538219
0.00015325582911534104
0.00017547501230852483
0.00019073957611232345
0.0001990941163332201
0.00020709277641162277
0.00021625322876539025
0.0002240898004081421
0.0002289131898922795
0.0002345300987843405
0.00024870368665115333
0.0002715157476608806
0.0002908749818011537
0.00030580442121091404
0.00031395124744142047
0.0003217388264222957
0.0003323795432430706
0.0003457140937115403
0.0003656443875040597
0.0003902737815805958
0.0004177731019183473
0.0004313778598006911
0.00044590249558283164
0.00046268211832240104
0.0004797282888492049
0.0004956159224320773
0.0005102220855743152
0.0005262612597202813
0.0005454165833895492
0.0005659686227480485
0.0005811945655338345
0.000594194430540613
0.000595047102501914
0.0005903304231579248
0.0005873877639157854
0.0005815398003980487
0.0005820856986857192
0.0005804592388638485
0.0005756541416429197
0.000571482474496656
0.0005618831799662142
0.0005321724995910044
0.0005138662569427243
0.0004878308087958328
0.0004999151636378874
0.0003891269978953703
6.366494889796216e-05
0.0003190923290947148
0.0006382574856406094
0.0006840736554625897
0.0006009227666093929
0.0005627144127817873
0.0004376710848779347
7.63322214233059e-05
-0.0002719732404105585
1.9518340636040888e-05
-0.0008425634797804113
3.5221184610054315e-05
-0.0023632557417091653
3.722036044455888e-05
-0.0008353181468451893
5.0049036402095186e-05
-0.0001457694306498788
6.886341317116034e-05
-0.0008532234020868466
8.136885125751063e-05
-0.0007524189003529965
8.678383343718562e-05
-0.0008200001888265461
9.612468795706092e-05
-2.0286872045881627e-05
0.00010774680950416949
-0.0008080942866063971
0.00011715032744487697
-0.0010785826425156139
0.00012994426403670933
-0.0007217776081446758
0.0001413832633964499
0.00010212746231060465
0.0001542611233979286
-0.0007243820440725034
0.00016186680767274708
-0.0007014447756462058
0.00016394214528420953
-0.0006239047821861207
0.00016311605124686365
0.0002150762470187404
0.00016438769739257348
-0.0006238265942342182
0.00016128710718370535
-0.0007185034959527584
0.0001631328525390839
-0.0004969841306519986
0.00016535538419697976
0.00032070621491614063
0.00016808348892198154
-0.00048132851358027493
0.00016564305780590908
-0.0006623591053769683
0.00015972833224469314
-0.00040610082002485293
0.00014879185763758343
0.00042005707238930337
0.00013836889699881479
-0.000352654259467706
0.00012600936330438292
-0.000978838709768008
0.00011706872040886806
-0.00028276139196055735
0.0001091059884812817
0.0005174603263142639
0.00010014777083527178
-0.0002636551826716122
9.0037116929417e-05
-0.0006325794788115725
7.932410404520582e-05
-0.00021058881989288023
7.115214937578974e-05
0.0006099483237262944
6.011232817182228e-05
-0.0002199982080740997
4.6157973355623016e-05
-0.0015019250441489541
2.6746267431043396e-05
-0.00010825534799971003
9.187080549628972e-06
0.0006945064960359544
-1.854861010736964e-06
-0.00011806628688583638
-8.815076299058396e-06
-0.0005911158033118182
-1.6293116967831198e-05
-1.1581889045256352e-05
-2.360494382955242e-05
0.0007716306653274531
-3.199501419149598e-05
-1.901295952327228e-05
-4.4183474608762115e-05
-0.0008741163407051918
-5.920091962075359e-05
0.00010604095494038697
-7.537668234464139e-05
0.0008483510038628239
-8.695129955205295e-05
9.995742174051465e-05
-9.588444329831344e-05
-0.0005193266140859049
-0.0001065662251742782
0.0002261185233767964
-0.00011915922630540725
0.0009196776134287679
-0.00013270276962167745
0.00020334841517285975
-0.00014789326047967802
-0.000793794154025103
-0.00016556313242968148
0.00043188696171877035
-0.00018481369834095929
0.0009844352635048862
-0.00020255046157677094
0.0003056923359114746
-0.00021977741868110817
-0.0004037889027579038
-0.00024058861512714038
0.0005487330740818019
-0.00026576757062114667
0.0010332061241004578
-0.0002931098900729676
0.00046436979937694947
-0.0003214382871124796
-0.0007870013968133197
-0.00035020545545416014
0.0005642264538672701
-0.0003789217661172964
0.0010748092810627318
-0.0004075554835646849
0.0005712630468445156
-0.00043871632255000387
-0.00036719827521868145
-0.00047459199315192735
0.0006364985188261433
-0.0005140752813919066
0.0011098216206549335
-0.0005549690235757192
0.0006490890563759593
-0.0005971972231161432
-0.0010609760389427587
-0.0006411926705601266
0.0007147488808054041
-0.0006862479241012417
0.0011495855224384446
-0.0007300342911936734
0.0007015551291005206
-0.0007724960736609534
-0.0002882211391148512
-0.0008172923360588756
0.0007625297081269841
-0.0008692799934710588
0.0011822556764915684
-0.0009290127923765556
0.0007916484737526421
-0.0009912210630356312
-0.0007004393685439621
-0.0010506873620365245
0.0009869560296340177
-0.0011048784800355511
0.0012102455169682406
-0.0011528629163522753
0.0009223856922596082
-0.001196955421874826
-0.0002550455252061984
-0.001242390609629141
0.0010718270234700816
-0.001291660133737385
0.0012416177839716114
-0.0013416472136133202
0.0009815940174847727
-0.0013885340786132078
-0.0007288010144962005
-0.001429274872236011
0.0009855519187390888
-0.0014526335651982236
0.00130881424343374
-0.0014677467996382153
0.0010994994140840536
-0.0014819230601641202
-0.00018375054974038133
-0.0014847587450372958
0.0011096778514450263
-0.001481486927974365
0.0013002076861330174
-0.001471362596654398
0.0012202962892007663
-0.0014531284522747642
-0.000621946805111378
-0.0014261073637687205
0.001293893476604499
-0.0013896737863578485
0.0013258715246418713
-0.0013431870330439383
0.0013569073412572086
-0.0012862002112017331
-0.0001371430439345586
-0.0012185496380076445
0.0013684418150104116
-0.0011406214489090623
0.0013135295550784937
-0.001053437370831039
0.0014607682011926915
-0.0009581063156887336
-0.0015821272931605458
-0.000856431687653716
0.0014375449762311968
-0.0007492608637846253
0.0013384572116131224
-0.0006363455043979762
0.0014261627715755384
-0.0005174146944566093
-0.00016343835907661595
-0.0003932935152231824
0.0014681504263377302
-0.0002652538010864413
0.0013317900353810054
-0.0001341793124023489
0.0015222250784656976
-1.213956288935484e-06
-0.001182888482346335
0.00013167082766746212
0.0015240191164553822
0.0002616785025644965
0.0013258090490454967
0.0003857523297522801
0.0015767836966041613
0.0005048833367796839
-6.721230107704017e-06
0.0006204090656206644
0.0016243634566150433
0.0007328536751163892
0.0013254528336459517
0.0008409435120956489
0.0016683726139445662
0.0009449168401197871
-0.0016760103256749734
0.0010456914897047605
0.0016894295062598623
0.0011431481478785851
0.0013976713937614365
0.00123440518571662
0.0016968089909537264
0.0013153926794996365
2.9405524638264224e-06
0.0013877589212364302
0.0017145075353082804
0.0014562264473029383
0.0013381143111294326
0.0015239267046900339
0.0017680277908438415
0.001588790107286289
-0.0005333305175429769
0.0016502756970760537
0.0017169192059990194
0.0017097674663528392
0.001294647900728221
0.00176962379425024
0.0017340067200019816
0.0018273541860926946
4.611868019096393e-05
0.0018724718543861138
0.0017602860714835086
0.0019059360980936521
0.001352613783244433
0.001931561339875933
0.001780889685824276
0.001956406946595779
-0.0007848000607204326
0.0019820943947660655
0.0017937848562671476
0.002006513108461752
0.0013322845497253692
0.0020331812405564443
0.0018022869770362008
0.0020639009231838428
8.613795806343157e-05
0.0020867105560512934
0.0017980225133742442
0.0020851386478088372
0.0013082644945581084
0.0020765801783308208
0.0018127911190104066
0.0020755413989353827
-0.0004564137128244424
0.0020722720884057215
0.0018246000012361772
0.0020641926187647945
0.0012701071111675141
0.0020528724228737884
0.0017793742266930168
0.0020473930451294408
0.00015172294993545798
0.002069526024017516
0.001763443565236855
0.002062160146209955
0.0012163980347744982
0.0020436095198869417
0.0017504430887118354
0.002019821590552639
-0.0023420909763105843
0.001981406164432619
0.0017350038495252931
0.0019501090812065584
0.0011750268330333283
0.0019156007662536338
0.0017241554895751673
0.001882725487827552
0.00025920031169216677
0.0018577238958914768
0.0017073029898112505
0.0018767210924629048
0.0012298378051050533
0.0018288167942033414
0.0016835247999132889
0.001809901989042906
-0.00038919868740970717
0.001772977031087999
0.0016427177633958087
0.001727550506169757
0.001147865549413126
0.001683061978741253
0.0015948383131052398
0.0016366003885282783
-0.0006717941451640318
0.0015761740563080163
0.0015449994216906499
0.0015122770296723653
0.0011827376840908466
0.0015154990973669305
0.0014961869240111409
0.0014429984677587291
-0.0006913081116364772
0.001416555213016209
0.00144370109226067
0.0014056982223068577
0.001192854362115964
0.001345640348963586
0.0013866504546434918
0.0013095371495508502
0.0003330687405697693
0.0012384936955427894
0.0013270171124885378
0.0011762368825398363
0.0011608787948718198
0.0010695428384635132
0.001267500883511436
0.0010769026389856142
-0.00031215523927330895
0.001011449322776199
0.0012023807697708383
0.0010038801422300719
0.001131167362056615
0.0009244926833311686
0.0011287016885276819
0.000902765711937305
-0.0012323392877191443
0.000820017779181717
0.0010440036633791998
0.0008257438375138542
0.0010648592277452396
0.0006976447392470518
0.0009540590380693394
0.0006974433695226933
-0.0016462581908331497
0.0005625514751557748
0.0008602347043016648
0.0005444227514116954
0.0009935059771220116
0.0004132895655929529
0.0007611535548951934
0.00041009604214692103
0.00039282610431338923
0.00028850604203567936
0.0006567079334885033
0.00028966543264965236
0.0009829643438227888
0.0001788039961777056
0.0005476877916024177
0.00018060588405615692
-0.000221949870130422
7.35354773036863e-05
0.00043593588344319537
4.6990667244712054e-05
0.0008467173284329152
-3.8626195151174726e-05
0.00031997812538729853
-7.102733356463954e-05
-0.0009694239370377767
-0.0001440313120970931
0.00019821950786503827
-0.00018972309828294785
0.0008426089689222941
-0.00029190206031609004
7.020298758210236e-05
-0.0003312840649299996
-0.0007862258449465042
-0.00042086939902706355
-6.021638837344484e-05
-0.00044901264921343615
0.0008905569246208141
-0.0005392938638578924
-0.00019109749419379384
-0.0005614180180447448
0.000306583989719595
-0.0006480581268751003
-0.00032173735536983637
-0.0006772122060620591
0.0010128035783958612
-0.0007357957613918874
-0.0004502882974169272
-0.0007537864336695051
-0.00019421315585041235
-0.0007380862396425817
-0.0005751062438743167
-0.0007751013460450951
0.0008521005889196666
-0.0008211954743323544
-0.000694251113640751
-0.0008450273440751734
0.0003125240405525832
-0.0008614340439519698
-0.0008077069401864116
-0.0008783807172856764
0.0008624006851814004
-0.0009614779620957521
-0.0009156666030772009
-0.0008529783168155903
-0.0024391046886993815
-0.0008854039352025057
-0.0010187823700310735
-0.0009039984417298929
0.0008365863717032971
-0.0008995305891760703
-0.0011146237923365377
-0.0008841836297853179
0.00036025602582156037
-0.0008278278643555588
-0.001202533156474947
-0.0007411578236707276
0.0007116355208429642
-0.0006639601797864262
-0.0012816474590677494
-0.0006753512977114209
-0.00013342174279301283
-0.0005413129107821269
-0.0013506768929488517
-0.00032584367131982837
0.0005854529056525563
-0.0001636041522034699
-0.001409111903766247
6.559074217632424e-06
0.00043643965522762715
0.0001029022693562034
-0.0014566419222884056
0.00023889238099036983
0.0004952589528088924
0.0003498610165385906
-0.0014941380198029567
0.0004351646352614389
-0.0007965746966679969
0.0005280041036328559
-0.001522704302453938
0.0006821779387375285
0.00046993917483127636
0.00068956980995025