# vtk DataFile Version 1.0
GRUMMP topologically 2D mesh
ASCII

DATASET UNSTRUCTURED_GRID
POINTS 6176 float
  1.0000000000000000   0.0000000000000000   0.0000000000000000
  0.9979736161243241   0.0002872981906159   0.0000000000000000
  0.9959038003591104   0.0005818082753016   0.0000000000000000
  0.9937894604158818   0.0008826109490225   0.0000000000000000
  0.9916311447855282   0.0011889740049165   0.0000000000000000
  0.9894256878168368   0.0015011074645448   0.0000000000000000
  0.9871732566523234   0.0018189104108560   0.0000000000000000
  0.9848739492731372   0.0021423104928037   0.0000000000000000
  0.9825241245750710   0.0024717658271048   0.0000000000000000
  0.9801244133260449   0.0028071825305054   0.0000000000000000
  0.9776732769852096   0.0031487906039340   0.0000000000000000
  0.9751690039483889   0.0034968357351786   0.0000000000000000
  0.9726117072730877   0.0038512643819321   0.0000000000000000
  0.9700001180350898   0.0042121148976419   0.0000000000000000
  0.9673332227148538   0.0045793859121594   0.0000000000000000
  0.9646079236541195   0.0049533708962095   0.0000000000000000
  0.9618249648196705   0.0053338679490647   0.0000000000000000
  0.9589807878895711   0.0057213439443832   0.0000000000000000
  0.9560767311296049   0.0061156062701256   0.0000000000000000
  0.9531120216710255   0.0065167463399167   0.0000000000000000
  0.9500819018783057   0.0069253778138591   0.0000000000000000
  0.9469876484068450   0.0073412143029309   0.0000000000000000
  0.9438286210030068   0.0077641908681895   0.0000000000000000
  0.9406001269296587   0.0081947829660712   0.0000000000000000
  0.9373041277084813   0.0086325757434285   0.0000000000000000
  0.9339368121646437   0.0090779560824189   0.0000000000000000
  0.9304976431076690   0.0095309377793780   0.0000000000000000
  0.9269838874379289   0.0099918267186165   0.0000000000000000
  0.9233965242394278   0.0104604374002928   0.0000000000000000
  0.9197323684717913   0.0109371203977286   0.0000000000000000
  0.9159901296799260   0.0114219111797446   0.0000000000000000
  0.9121662515702946   0.0119150917142392   0.0000000000000000
  0.9082612640703632   0.0124164093968364   0.0000000000000000
  0.9042711890176098   0.0129261849544228   0.0000000000000000
  0.9001985925103467   0.0134439182275261   0.0000000000000000
  0.8960367883853674   0.0139703538547480   0.0000000000000000
  0.8917881131106570   0.0145051006126241   0.0000000000000000
  0.8874465968544013   0.0150488093430172   0.0000000000000000
  0.8830132689405343   0.0156012428338051   0.0000000000000000
  0.8784843643309772   0.0161627200549514   0.0000000000000000
  0.8738585592690924   0.0167332093564690   0.0000000000000000
  0.8691331845657406   0.0173128340473851   0.0000000000000000
  0.8643080629784704   0.0179014022230632   0.0000000000000000
  0.8593790220315882   0.0184992057974382   0.0000000000000000
  0.8543443022105112   0.0191062525475961   0.0000000000000000
  0.8492020742372332   0.0197225542022908   0.0000000000000000
  0.8439504592998461   0.0203481184762133   0.0000000000000000
  0.8385847225217766   0.0209832807547837   0.0000000000000000
  0.8331043690503205   0.0216278714070098   0.0000000000000000
  0.8275075883744546   0.0222818740978654   0.0000000000000000
  0.8217896079901662   0.0229456038551552   0.0000000000000000
  0.8159499389768221   0.0236188617887649   0.0000000000000000
  0.8099850870934132   0.0243017702717010   0.0000000000000000
  0.8038929332928342   0.0249942623102002   0.0000000000000000
  0.7976697970229181   0.0256964297179088   0.0000000000000000
  0.7913134730328051   0.0264081777898121   0.0000000000000000
  0.7848218596203610   0.0271293903098903   0.0000000000000000
  0.7781898173908960   0.0278602762976724   0.0000000000000000
  0.7714169256365310   0.0286005013921829   0.0000000000000000
  0.7644979701754163   0.0293502351726533   0.0000000000000000
  0.7574308659438134   0.0301093068082177   0.0000000000000000
  0.7502135053150701   0.0308775557618342   0.0000000000000000
  0.7428404612557281   0.0316551512399728   0.0000000000000000
  0.7353096164115749   0.0324418730798164   0.0000000000000000
  0.7276172963491144   0.0332375368705936   0.0000000000000000
  0.7197598859172740   0.0340418579688506   0.0000000000000000
  0.7117355290536627   0.0348543282856948   0.0000000000000000
  0.7035389878799579   0.0356747811793425   0.0000000000000000
  0.6951650952820780   0.0365031090698871   0.0000000000000000
  0.6866122709923126   0.0373388258653197   0.0000000000000000
  0.6778754950330185   0.0381817369178559   0.0000000000000000
  0.6689534383202176   0.0390312029136988   0.0000000000000000
  0.6598376964403885   0.0398871771799410   0.0000000000000000
  0.6505290121117546   0.0407486821288951   0.0000000000000000
  0.6410191910005383   0.0416153892989160   0.0000000000000000
  0.6313056496470314   0.0424862165552765   0.0000000000000000
  0.6213823079172336   0.0433602824420315   0.0000000000000000
  0.6112489281649386   0.0442362457646169   0.0000000000000000
  0.6008963123926909   0.0451137308907019   0.0000000000000000
  0.5903211292528141   0.0459917803130241   0.0000000000000000
  0.5795184839365645   0.0468692540951747   0.0000000000000000
  0.5684857150099230   0.0477443424041717   0.0000000000000000
  0.5572148862675538   0.0486154402631608   0.0000000000000000
  0.5457024491672809   0.0494805599680832   0.0000000000000000
  0.5339780836677636   0.0503353194116202   0.0000000000000000
  0.5219860728183490   0.0511813660693644   0.0000000000000000
  0.5101253307512127   0.0519891081313360   0.0000000000000000
  0.4985043971600128   0.0527514649709832   0.0000000000000000
  0.4871181100865982   0.0534694955937708   0.0000000000000000
  0.4759663238182478   0.0541439373921026   0.0000000000000000
  0.4650424897306392   0.0547759224024376   0.0000000000000000
  0.4543414694194311   0.0553665338532900   0.0000000000000000
  0.4438615277983380   0.0559167464857066   0.0000000000000000
  0.4335966445555638   0.0564277439227250   0.0000000000000000
  0.4235422171719039   0.0569005367499369   0.0000000000000000
  0.4136931783754329   0.0573360485787389   0.0000000000000000
  0.4040479201781875   0.0577350333573017   0.0000000000000000
  0.3946007843384192   0.0580984587592611   0.0000000000000000
  0.3853459130056055   0.0584273588583778   0.0000000000000000
  0.3762828394437238   0.0587225582688298   0.0000000000000000
  0.3674052759622001   0.0589850521268143   0.0000000000000000
  0.3587104110044708   0.0592156767487264   0.0000000000000000
  0.3501952433465900   0.0594152538281565   0.0000000000000000
  0.3418548081050912   0.0595846279097528   0.0000000000000000
  0.3336858663230149   0.0597246577421592   0.0000000000000000
  0.3256868701986138   0.0598362486465025   0.0000000000000000
  0.3178507769372301   0.0599203474438374   0.0000000000000000
  0.3101776523444911   0.0599777679649948   0.0000000000000000
  0.3026620994593082   0.0600092896252224   0.0000000000000000
  0.2953022098091474   0.0600156089816429   0.0000000000000000
  0.2880942515540157   0.0599974067416477   0.0000000000000000
  0.2810344582773878   0.0599553507162620   0.0000000000000000
  0.2741224198462300   0.0598902308958287   0.0000000000000000
  0.2673508102792782   0.0598027829062179   0.0000000000000000
  0.2607208372897423   0.0596938009430880   0.0000000000000000
  0.2542268737219818   0.0595639532054747   0.0000000000000000
  0.2478699323930078   0.0594139942796022   0.0000000000000000
  0.2416426526986943   0.0592444560641495   0.0000000000000000
  0.2355443386744786   0.0590559928562533   0.0000000000000000
  0.2295742285057687   0.0588492600763349   0.0000000000000000
  0.2237267309732288   0.0586247739586633   0.0000000000000000
  0.2180011540540604   0.0583832555000465   0.0000000000000000
  0.2123936096745636   0.0581252700988444   0.0000000000000000
  0.2069018249031851   0.0578514118247249   0.0000000000000000
  0.2015265925874962   0.0575624139311738   0.0000000000000000
  0.1962639217171782   0.0572587327640815   0.0000000000000000
  0.1911098627978642   0.0569407701058159   0.0000000000000000
  0.1860635373512509   0.0566090833477142   0.0000000000000000
  0.1811225555455632   0.0562641183158228   0.0000000000000000
  0.1762831066659017   0.0559062017034564   0.0000000000000000
  0.1715472965099615   0.0555361405439852   0.0000000000000000
  0.1669099315072494   0.0551541804881659   0.0000000000000000
  0.1623702175183220   0.0547608759938091   0.0000000000000000
  0.1579259317985442   0.0543566416724963   0.0000000000000000
  0.1535748664842349   0.0539418626674859   0.0000000000000000
  0.1493147619729656   0.0535168899310313   0.0000000000000000
  0.1451447283274916   0.0530821904592715   0.0000000000000000
  0.1410625235604109   0.0526380756497570   0.0000000000000000
  0.1370659530359299   0.0521848322503466   0.0000000000000000
  0.1331567814638518   0.0517231967360234   0.0000000000000000
  0.1293276562313525   0.0512528455259629   0.0000000000000000
  0.1255804504092525   0.0507745502773552   0.0000000000000000
  0.1219131281255899   0.0502885988465475   0.0000000000000000
  0.1183237015509818   0.0497952534010120   0.0000000000000000
  0.1148102318092792   0.0492947513229479   0.0000000000000000
  0.1113720175725520   0.0487874812015910   0.0000000000000000
  0.1080070759532941   0.0482736140267307   0.0000000000000000
  0.1047146335147149   0.0477534816268928   0.0000000000000000
  0.1014927513745349   0.0472272179600503   0.0000000000000000
  0.0983395479756496   0.0466949369878610   0.0000000000000000
  0.0952554508934213   0.0461571322873805   0.0000000000000000
  0.0922363866432952   0.0456135046927440   0.0000000000000000
  0.0892828700951544   0.0450645654218522   0.0000000000000000
  0.0863942718297865   0.0445106297655928   0.0000000000000000
  0.0835678320075330   0.0439515803137779   0.0000000000000000
  0.0808019575920066   0.0433874837688950   0.0000000000000000
  0.0780971710598979   0.0428188278852694   0.0000000000000000
[...]
POINT_DATA 6176
SCALARS continuity float
LOOKUP_TABLE default
0.00016198451993326043
1.9590940373073194e-05
-3.3311630132501997e-07
-7.785572342582239e-06
-3.136189624829484e-05
-4.620563967785493e-05
-5.920242933801341e-05
-6.995568780042636e-05
-7.89771017691699e-05
-8.677028279366099e-05
-9.514072958918235e-05
-0.0001016063751339823
-0.0001092228964461958
-0.00011681607748134064
-0.0001239830148662048
-0.00013092112407838072
-0.00013948177458265233
-0.00014686899794644724
-0.00015412225258936406
-0.00015997871292833577
-0.00016547266098023187
-0.00017077307144070314
-0.00017559774027396522
-0.00017936064305020888
-0.00018362066399203473
-0.00018881758115001538
-0.000194124105742497
-0.0001988117529207418
-0.00020276470808786303
-0.0002060349080240489
-0.0002090376616233124
-0.00021174534080763076
-0.00021412890545388066
-0.00021613424509617544
-0.0002183092276604605
-0.00022129977387133656
-0.000224734372852146
-0.00022834347300333186
-0.00023123046128451072
-0.0002334098504893798
-0.0002353999439126556
-0.00023730531128642195
-0.00023938940823850028
-0.0002422716593278874
-0.0002457442612647919
-0.0002492079175284623
-0.00025198517488446664
-0.00025378567854863413
-0.000255127054007047
-0.0002565879958483445
-0.00025846508406209
-0.0002611713974426456
-0.00026476395638265504
-0.00026866555234779306
-0.00027200019608078615
-0.0002741851213356766
-0.0002756026801002902
-0.0002770408596495097
-0.0002789337696974853
-0.0002817080268492941
-0.0002856281177929816
-0.00029009145737431813
-0.00029397415322492804
-0.0002967037016402756
-0.0002986893206827669
-0.00030060110591001774
-0.0003026039292984245
-0.0003045946550137196
-0.00030676150634540973
-0.0003098343871775256
-0.00031445853300670067
-0.00032014997719713553
-0.0003255433946067436
-0.0003295526267486631
-0.000332420679757969
-0.0003353575228975468
-0.0003392732059666677
-0.0003446562438919876
-0.0003518308271671762
-0.0003604424081607978
-0.0003694294460919403
-0.0003780900124910255
-0.00038669896457352244
-0.00039577260600930704
-0.0004051554125106273
-0.00041411704483190883
-0.00043004173200368
-0.00044957345762000524
-0.0004699892626880403
-0.0004915040739314399
-0.000513898325064748
-0.0005365177886630298
-0.0005594270293568749
-0.0005833406210339246
-0.0006089343253750857
-0.0006365465270621198
-0.0006665458376411555
-0.0006994979514908814
-0.0007354585339667353
-0.0007734494574614538
-0.0008121321776219941
-0.0008511213895188898
-0.0008911702173607412
-0.0009333317357615738
-0.0009780294963391445
-0.0010254932701472541
-0.0010763429009601876
-0.0011309498606925567
-0.0011882566701659051
-0.0012463194503334958
-0.0013043474542073098
-0.0013633553590971402
-0.0014248115624382832
-0.0014890387365421292
-0.001555794595850108
-0.001625538919343486
-0.001699338714274719
-0.0017764537090220163
-0.0018539247714954145
-0.0019296901334748633
-0.0020051219355463447
-0.0020828739153494263
-0.0021637390096822533
-0.002246594260434649
-0.0023312539211757166
-0.002419520011698182
-0.002512514859176513
-0.0026060159774245677
-0.002695734415612911
-0.002783111928227429
-0.002871516201964739
-0.002963909699932512
-0.003058528328384398
-0.003155849535254418
-0.003259794479242737
-0.003368354121456764
-0.00346477223948028
-0.003557327475861729
-0.0036588963294371816
-0.003762946419623583
-0.0038672058571194126
-0.003971670474111487
-0.004076518701773761
-0.004187308069649929
-0.004311142449638396
-0.004425733360878925
-0.0045270041400586585
-0.004631306897498824
-0.004743594250062616
-0.0048574668777700775
-0.0049706889052261475
-0.005086474880846288
-0.005205551119235148
-0.0053182592432384265
-0.005425057271152971
-0.005543715884499246
-0.00567933742944123
-0.005809546622796522
-0.0059351063623493145
-0.006061991650749866
-0.006184558989465366
-0.006306822906594627
-0.006421843797132178
-0.006535327273461771
-0.006653553941007888
-0.006782411122884258
-0.0069142251976933725
-0.007048251235504984
-0.0071830074293963726
-0.0073164598669361765
-0.0074528346308516385
-0.007609109173556109
-0.007738122408840494
-0.007874934863709833
-0.008002563750065821
-0.008139948540824286
-0.008266358655663676
-0.008384922987673547
-0.008513209384576254
-0.008645911910428855
-0.008779288724463983
-0.00890796287917358
-0.009046176310314695
-0.009166320143788159
-0.009295869291842201
-0.00939977777740848
-0.009520435481399981
-0.009608215894850477
-0.009717261415569754
-0.009779012627659176
-0.009883179232179476
-0.009949371132294863
-0.009999287759503202
-0.010039936685205971
-0.010060335460649137
-0.01005938079755753
-0.010027320326198417
-0.009966406031840298
-0.009863314668345115
-0.009713753470203784
-0.00949538718530797
-0.009216483545586695
-0.008860137144309574
-0.008397564452115105
-0.0078024385082100705
-0.007234652205142089
-0.006431412966151496
-0.005485390756341721
-0.0044217371443907244
-0.003257183555106539
-0.0018938686793500505
-0.00045702966810912674
0.0008330184492041303
0.0020836752517470595
0.0033125793104246304
0.004472063938426786
0.005523244064966479
0.006287949209374641
0.007097776215570763
0.007867667391572112
0.008453911956078123
0.00892471880558931
0.009300428933100159
0.009592939667662262
0.009799943706640812
0.009949560509391218
0.010038340872510633
0.010090236665815155
0.010109474657949941
0.010113427229938257
0.010090764943485198
0.010054793353119503
0.009995548353517502
0.00991184047870787
0.009850724252044075
0.009747505819673237
0.009661291533505317
0.009545299472200897
0.00944218240188931
0.009317969243671533
0.009203336805100552
0.009075821996660096
0.008952987244387653
0.008816942344635018
0.008690082347319045
0.00855310776024574
0.008419035430457742
0.008281258594187789
0.008157561775030582
0.008021974393122452
0.007873769078864029
0.007744915934942475
0.0075835742319124025
0.0074377949074796975
0.007302427351433139
0.007169534031095518
0.0070378820825385815
0.006908825159335512
0.006782319410988332
0.006660551949736914
0.006545395963908668
0.006429758482995791
0.006305602056023265
0.006179070499746378
0.006049213492261942
0.005921066636764083
0.005788111936233054
0.005648946172168703
0.0055240394085642
0.00540831039992894
0.0053014784014286
0.00518689460297697
0.005072162825591598
0.0049590198873115865
0.004844369068096912
0.0047372508721761
0.004633367062465968
0.00452044056786088
0.0044013019086833185
0.004283097053802364
0.0041722737327842
0.004065770136876201
0.003960159072039534
0.0038547816971366607
0.0037496318015502006
0.003648684840064247
0.00355421592201179
0.0034572651548628397
0.003355843013523353
0.0032479048696609975
0.003144320320250021
0.0030475395813396823
0.002953368128424046
0.002861374872204797
0.002773510263963004
0.0026867326188942946
0.002597591927340111
0.0025046691946646257
0.002412332442720911
0.0023248296513266467
0.0022413254131812186
0.002160339025506941
0.002082166746833935
0.0020057461357624587
0.0019289313041606511
0.0018505949623953731
0.001772638147398982
0.0016978960034856562
0.00162717427525081
0.0015593787064825527
0.0014939657805215173
0.0014312108646818195
0.0013714912138583508
0.0013143362299776085
0.0012584279547971568
0.0012029174681902645
0.0011485493905476476
0.0010972449069417104
0.0010501968674428927
0.0010070695279349345
0.0009669160284459328
0.0009288046014313571
0.0008917283647826055
0.0008551241921390812
0.0008196025414951067
0.00078647215788769
0.0007564231869823394
0.0007291885106100963
0.0007042884096544882
0.0006814991520855851
0.0006606466288834423
0.0006413013939877389
0.0006227379892513534
0.0006044990852860707
0.0005868345946449924
0.0005703966229561307
0.000555136856125646
0.0005406161805465375
0.0005298447714593665
0.0005256853916022894
0.0005202982564544412
0.0005148193242588357
0.0005093098715552894
0.0005032397099248448
0.0004966595251245492
0.0004905279210270669
0.0004859107894691422
0.0004830814141698311
0.00048163711707073736
0.00048105688890677696
0.0004803368088663872
0.0004782438554019163
0.0004750867580045255
0.00047258489634681325
0.00047144086677044556
0.0004709911845057034
0.00047059654578722335
0.00047019345124489235
0.00046996479761705705
0.00046946938647124414
0.00046765280149314034
0.00046430011235373304
0.0004604672661615648
0.00045742308656106175
0.0004557147797803871
0.0004549769388309674
0.0004546791761059743
0.00045425720334408187
0.00045277715849521014
0.00044997784489793347
0.0004471420545512655
0.00044546215578516665
0.00044466964032411114
0.0004441260717317544
0.00044371770086187943
0.00044352956692364715
0.0004434334734460267
0.000442804554085799
0.0004411117647743867
0.0004388798069038214
0.00043740168771549314
0.0004371358717615289
0.0004375589749387343
0.00043815899341467383
0.00043887273102426617
0.00043969200906842623
0.0004402297814895826
0.00043991889036910535
0.00043868411682005054
0.0004374486693898526
0.00043671245813908826
0.00043691729495393616
0.00043728116180888246
0.00043720891927688575
0.0004366585167817332
0.00043512962443175156
0.0004327231485884031
0.00042920224547925357
0.00042708608920007747
0.0004253295560019102
0.0004223539133492451
0.0004184002822544007
0.00041377861011419957
0.00040875076789360606
0.0004030715765487355
0.00039673022753817806
0.0003889133530798255
0.00038127208374969825
0.00037233781979960665
0.0003645526280134212
0.0003567299142506524
0.00034817420209163025
0.0003393386014636816
0.0003326481982084239
0.00032367883229826117
0.00031602579133263885
0.0003075689519433739
0.00029765880178880523
0.000284474875531088
0.00027168692105061115
0.00025267757555605614
0.00024802653130245596
0.00024528611285793637
5.293488938913765e-05
0.00022271166759948232
0.00022764684281468083
0.00019691673755859316
0.00014272663032597065
0.00010096787164224994
6.963902847608426e-05
3.1928057784087136e-05
-0.0013686619482772909
-6.457058629401844e-06
-0.006641245151464857
-2.5167746713646904e-05
-0.0021734331994777987
-3.9913765327986995e-05
-0.007116141085422268
-5.201336151656836e-05
-0.0014297489780151016
-6.464464741924659e-05
-0.0077180807949343315
-7.179931459549836e-05
-0.008084795864970098
-8.133158961926208e-05
-0.008230252824876692
-9.015460402685881e-05
-0.0014945080288362557
-9.682640140332267e-05
-0.008758954218199326
-0.0001063707374353923
-0.0015897791426253765
-0.0001140503919552774
-0.008876837444386852
-0.00012128375909150203
-0.0015620660310635263
-0.00012901446682636245
-0.009243601495200978
-0.00013561506545014724
-0.00815376846766447
-0.0001425803012498723
-0.009268151074506096
-0.00015064070323214887
-0.0016279465330200972
-0.0001569119462603252
-0.009504675350670441
-0.0001650729251732513
-0.002543146864304386
-0.00017082978459379656
-0.009464556849167905
-0.00017604513253743578
-0.0016945393650647112
-0.0001804693272323917
-0.009606905323205085
-0.0001852926899944964
-0.008095170293223049
-0.00019035518824720687
-0.009523253282659901
-0.0001958058892182875
-0.0017618826077972253
-0.00020016230847037157
-0.009601281010765576
-0.00020519687781858485
-0.0016427895648830945
-0.00020897827308805517
-0.00950883781810504
-0.00021229528596988518
-0.0018341845639451614
-0.00021526157806355317
-0.009550068745832275
-0.00021788375506610736
-0.008082695803410415
-0.00022016141412669403
-0.009436428508236722
-0.0002221623691837684
-0.0019090287761039776
-0.00022460271041179007
-0.009414007264357533
-0.00022769739882967462
-0.002302145423320719
-0.00023127170321416235
-0.009340022123219958
-0.00023480688457526227
-0.0019856796992923937
-0.00023747909295409635
-0.009270556950449782
-0.00023963273174787989
-0.008013579262992601
-0.00024161178883417157
-0.009183523391669826
-0.0002435068365990796
-0.002064567793533201
-0.00024585917598311395
-0.009092615247395772
-0.00024893887041329383
-0.0017006499602047781
-0.0002523449672286455
-0.009000125064092613
-0.0002556708087403157
-0.0021499337672338404
-0.0002581313733125934
-0.00888932263899956
-0.00025980249689484683
-0.007795291703539125
-0.0002612242318064926
-0.008784266859402475
-0.0002627504433793548
-0.0022337805355315886
-0.00026482628948001517
-0.008610600139280477
-0.00026783585228815695
-0.0025120360414919436
-0.00027154713323277217
-0.008573960695401707
-0.0002753805077399361
-0.0023192733959024854
-0.0002784225330004723
-0.00838042612994211
-0.00028040764081037594
-0.007716415009645305
-0.000281903485235622
-0.008337590785732771
-0.0002834683616899298
-0.002397128725398001
-0.00028555181772380473
-0.008192836069940874
-0.00028868833180152245
-0.0017479376359895247
-0.000292871971331306
-0.008089706506113795
-0.0002972858117349164
-0.002476542149084909
-0.00030090820372543996
-0.007953703230323506
-0.0003035042013724956
-0.007565182365594575
-0.0003056087935101441
-0.0078466573475262
-0.000307681380138513
-0.002557790589443803
-0.0003097488114344462
-0.0077155593227975295
-0.0003117660821700078
-0.0020962360997258908
-0.0003141086527733262
-0.007616842915824622
-0.0003176348793842141
-0.002646596895932422
-0.0003227388019594319
-0.007478268316579216
-0.00032861880962170294
-0.007381787792834452
-0.00033384289743247495
-0.007385770340255132
-0.0003376425261760343
-0.0027362461474385157
-0.0003406253630530388
-0.007225346654386334
-0.00034391732715914305
-0.0017967099327336384
-0.0003482217366407008
-0.007145977058196482
-0.00035410161941441554
-0.0028285410512343483
-0.0003618388330451513
-0.006996697847312427
-0.00037080709439951166
-0.007201484054552615
-0.0003799101797408746
-0.006908555138576391
-0.00038874509816667186
-0.002927869617953072
-0.0003977497477469315
-0.006769083043031969
-0.0004072496053653085
-0.0024624356347034
-0.0004168390648696764
-0.006644315244298297
-0.00042827666400056195
-0.002994326366884162
-0.0004378657867556182
-0.006522894029417978
-0.0004579644962283482
-0.0070504534628317815
-0.0004784810165826026
-0.006400598742445237
-0.0005001169052248757
-0.0030992105817340314
-0.0005228801072742845
-0.00627568379313025
-0.0005460170558306017
-0.0018462487313710672
-0.0005693453470682267
-0.006149894808747757
-0.0005935181613257279
-0.003187513322832486
-0.0006193489677562777
-0.006040957529596832
-0.0006472760459804719
-0.006932663973008495
-0.0006775476895169984
-0.005940547786426875
-0.0007105937593851948
-0.003286791129255557
-0.0007466445666385995
-0.0058358338384612496
-0.0007850315670707306
-0.0023304766138719482
-0.0008244307394531978
-0.005722104413230122
-0.0008640979526267936
-0.003366420928588111
-0.0009046025468466024
-0.005605655798387899
-0.0009470782102226824
-0.006688888892168988
-0.0009922300882524802
-0.005474785188267959
-0.0010402057803723052
-0.0034561249569672408
-0.0010913390719066221
-0.005352392402091894
-0.001146012251031947
0.006763372522175313
-0.001203697048861935
-0.00524574505597906
-0.0012627324881189976
-0.003554681945934083
-0.0013217103002383071
-0.00512122736490001
-0.001381390708923171
-0.0066174860404241
-0.0014432315803573042
-0.005009763918086384
-0.0015081223424576937
-0.0036640345748772734
-0.0015757388136780652
-0.004903217421043429
-0.0016462182333677722
-0.0010147868271065136
-0.0017201272871791382
-0.004807520370578502
-0.0017974821510463666
-0.0037412464721438667
-0.0018761727802715238
-0.004718591210935745
-0.0019533594357278093
-0.006462996332429528
-0.002029909252505713
-0.004611176209637881
-0.0021080041971378444
-0.003855846510128962
-0.002189618252469088
-0.004482529734986832
-0.002273581456178641
-0.001905057436919511
-0.0023595811125536785
-0.004389970788184634
-0.002448394367724455
-0.0039651147608677
-0.0025413623881774
-0.0042705647438914945
-0.0026360813499349584
-0.006357995471152671
-0.002726865008641803
-0.00415976732955706
-0.0028160249973442505
-0.004025455429308281
-0.0029052675931531087
-0.004053325930053709
-0.0029982324636933845
-0.002411603405658268
-0.003094058113558992
-0.00394876691577218
-0.0031924448182190568
-0.004115970475926092
-0.0032969777706982565
-0.003845531577252517
-0.0034031091758603793
-0.0061927621166139556
-0.0035040521964945963
-0.0037594342285725453
-0.003598156545729138
-0.0042143181630296634
-0.0036965454370726566
-0.0036505550158208067
-0.003801125582742451
-0.00196430573133752
-0.0039061798093523946
-0.003539857454947149
-0.004011937709929775
-0.00431439592148368
-0.004119092905370888
-0.0034587865324974885
-0.00423238506971896
-0.006117366686471376
-0.004330207473799185
-0.0033512211272366164
-0.004449667506698579
-0.004422420727178972
-0.004567969051705734
-0.0032511063620463444
-0.004668953957540925
-0.0021566419693442606
-0.004776395984959253
-0.0031529331688023208
-0.004890563094088059
-0.004542587393808324
-0.005004965924773165
-0.0030632425447281214
-0.005124666143115975
-0.00605866870862929
-0.005246021313712339
-0.0029731620628736374
-0.0053582269897381445
-0.004629452593804099
-0.005495434489295358
-0.00288513417854403
-0.00561341644329822
-0.00202657107046765
-0.005728356229732002
-0.0027897243559427153
-0.005834580649669956
-0.0047361869155662754
-0.005956873689324392
-0.0026938644792082202
-0.006081735944493506
-0.0062827265870535835
-0.006207796596503886
-0.002597116476635456
-0.0063386882210820315
-0.004838353235047555
-0.006458236855440534
-0.0025065337343082614
-0.006594488000876269
-0.0023590741180714862
-0.006716848143316679
-0.0024178927869469846
-0.006845281527672829
-0.004941061162339428
-0.006965471927224429
-0.0023309195512743472
-0.007102603463488231
-0.005901112722085796
-0.007225735598410605
-0.0022460887078944933
-0.00736086514347808
-0.005016181322112391
-0.007480212584839828
-0.00216592440393403
-0.007602617209383964
-0.002098004473261351
-0.00773270319188364
-0.002086414405331952
-0.007864742027923692
-0.005119029150008498
-0.007990000144582225
-0.0020068930602415024
-0.008124850340695721
-0.0017286264785795567
-0.0082484088892646
-0.0019247320650891463
-0.008395384377028935
-0.005211028678300428
-0.008509402120182172
-0.0018446383452644173
-0.008651908363463981
-0.0023676506323362483
-0.00876400634006025
-0.0017681023882798704
-0.00891337270222268
-0.005330148690374833
-0.009017239618913655
-0.0016944256863172336
-0.009167778257184478
-0.005745303625381819
-0.009252428471269239
-0.0016233871599944207
-0.00939626004567071
-0.00543866684540096
-0.00946229278332957
-0.00155527316155733
-0.009598962983141984
-0.0021335154315308006
-0.009643612810011979
-0.0014907067484293878
-0.009763380452723675
-0.005539454862762352
-0.00981221675093992
-0.001427933628629591
-0.009879803328338793
0.00620304368970453
-0.009920976018031212
-0.0013657225629949625
-0.009957147825963734
-0.0056567616633977965
-0.009968695609986403
-0.0013035519526809628
-0.009961730356664448
-0.002329566150140683
-0.009919069926968312
-0.0012433094600429301
-0.0098454677824868
-0.005781792580302424
-0.009733147748649312
-0.0011862656067902532
-0.009561217231966868
-0.005559031442046155
-0.009335642989445354
-0.0011323056477400746
-0.008993011786462347
-0.0059004816972184964
-0.008571954061615586
-0.00108128695770453
-0.008051363471872776
-0.002211737953260583
-0.007546070657324878
-0.0010331783731554278
-0.006720348744872683
-0.0059642812530246855
-0.005910767315658537
-0.0009880019437305796
-0.00499860047820577
-0.0054551066097277
-0.003985684610034328
-0.0009446878970569779
-0.002876235063618585
-0.006085242039941158
-0.0017523863087177123
-0.0009022172377138105
-0.0006339953960577008
-0.0019197920584846213
0.0005745558710457708
-0.0008601585699664937
0.0017499637067884951
-0.006161446098272534
0.0028978798177726663
-0.0008196638313985001
0.003983981772796111
-0.005358332835118652
0.004991658675681929
-0.000781647056279902
0.006006812923808717
-0.006257387567208374
0.006931290910039236
-0.0007463938660181399
0.007542578605347454
-0.0022722093747161343
0.008166382288501646
-0.0007136805899144875
0.00869616620298995
-0.006354612108337818
0.009135371313852048
-0.0006833220503624064
0.009429281839202077
-0.00526438391881135
0.009660779285812288
-0.0006552183462919412
0.009817453187147373
-0.006478847694180388
0.00991737866902009
-0.0006288066031674202
0.00997802530354472
-0.0022667252743393393
0.0099887932780095
-0.0006032577455483388
0.010042138389811092
-0.006613280546435868
0.009983662628915944
-0.000578038107590299
0.009988657803081107
-0.005193909213797015