# vtk DataFile Version 1.0
GRUMMP topologically 2D mesh
ASCII

DATASET UNSTRUCTURED_GRID
POINTS 6176 float
  1.0000000000000000   0.0000000000000000   0.0000000000000000
  0.9979736161243241   0.0002872981906159   0.0000000000000000
  0.9959038003591104   0.0005818082753016   0.0000000000000000
  0.9937894604158818   0.0008826109490225   0.0000000000000000
  0.9916311447855282   0.0011889740049165   0.0000000000000000
  0.9894256878168368   0.0015011074645448   0.0000000000000000
  0.9871732566523234   0.0018189104108560   0.0000000000000000
  0.9848739492731372   0.0021423104928037   0.0000000000000000
  0.9825241245750710   0.0024717658271048   0.0000000000000000
  0.9801244133260449   0.0028071825305054   0.0000000000000000
  0.9776732769852096   0.0031487906039340   0.0000000000000000
  0.9751690039483889   0.0034968357351786   0.0000000000000000
  0.9726117072730877   0.0038512643819321   0.0000000000000000
  0.9700001180350898   0.0042121148976419   0.0000000000000000
  0.9673332227148538   0.0045793859121594   0.0000000000000000
  0.9646079236541195   0.0049533708962095   0.0000000000000000
  0.9618249648196705   0.0053338679490647   0.0000000000000000
  0.9589807878895711   0.0057213439443832   0.0000000000000000
  0.9560767311296049   0.0061156062701256   0.0000000000000000
  0.9531120216710255   0.0065167463399167   0.0000000000000000
  0.9500819018783057   0.0069253778138591   0.0000000000000000
  0.9469876484068450   0.0073412143029309   0.0000000000000000
  0.9438286210030068   0.0077641908681895   0.0000000000000000
  0.9406001269296587   0.0081947829660712   0.0000000000000000
  0.9373041277084813   0.0086325757434285   0.0000000000000000
  0.9339368121646437   0.0090779560824189   0.0000000000000000
  0.9304976431076690   0.0095309377793780   0.0000000000000000
  0.9269838874379289   0.0099918267186165   0.0000000000000000
  0.9233965242394278   0.0104604374002928   0.0000000000000000
  0.9197323684717913   0.0109371203977286   0.0000000000000000
  0.9159901296799260   0.0114219111797446   0.0000000000000000
  0.9121662515702946   0.0119150917142392   0.0000000000000000
  0.9082612640703632   0.0124164093968364   0.0000000000000000
  0.9042711890176098   0.0129261849544228   0.0000000000000000
  0.9001985925103467   0.0134439182275261   0.0000000000000000
  0.8960367883853674   0.0139703538547480   0.0000000000000000
  0.8917881131106570   0.0145051006126241   0.0000000000000000
  0.8874465968544013   0.0150488093430172   0.0000000000000000
  0.8830132689405343   0.0156012428338051   0.0000000000000000
  0.8784843643309772   0.0161627200549514   0.0000000000000000
  0.8738585592690924   0.0167332093564690   0.0000000000000000
  0.8691331845657406   0.0173128340473851   0.0000000000000000
  0.8643080629784704   0.0179014022230632   0.0000000000000000
  0.8593790220315882   0.0184992057974382   0.0000000000000000
  0.8543443022105112   0.0191062525475961   0.0000000000000000
  0.8492020742372332   0.0197225542022908   0.0000000000000000
  0.8439504592998461   0.0203481184762133   0.0000000000000000
  0.8385847225217766   0.0209832807547837   0.0000000000000000
  0.8331043690503205   0.0216278714070098   0.0000000000000000
  0.8275075883744546   0.0222818740978654   0.0000000000000000
  0.8217896079901662   0.0229456038551552   0.0000000000000000
  0.8159499389768221   0.0236188617887649   0.0000000000000000
  0.8099850870934132   0.0243017702717010   0.0000000000000000
  0.8038929332928342   0.0249942623102002   0.0000000000000000
  0.7976697970229181   0.0256964297179088   0.0000000000000000
  0.7913134730328051   0.0264081777898121   0.0000000000000000
  0.7848218596203610   0.0271293903098903   0.0000000000000000
  0.7781898173908960   0.0278602762976724   0.0000000000000000
  0.7714169256365310   0.0286005013921829   0.0000000000000000
  0.7644979701754163   0.0293502351726533   0.0000000000000000
  0.7574308659438134   0.0301093068082177   0.0000000000000000
  0.7502135053150701   0.0308775557618342   0.0000000000000000
  0.7428404612557281   0.0316551512399728   0.0000000000000000
  0.7353096164115749   0.0324418730798164   0.0000000000000000
  0.7276172963491144   0.0332375368705936   0.0000000000000000
  0.7197598859172740   0.0340418579688506   0.0000000000000000
  0.7117355290536627   0.0348543282856948   0.0000000000000000
  0.7035389878799579   0.0356747811793425   0.0000000000000000
  0.6951650952820780   0.0365031090698871   0.0000000000000000
  0.6866122709923126   0.0373388258653197   0.0000000000000000
  0.6778754950330185   0.0381817369178559   0.0000000000000000
  0.6689534383202176   0.0390312029136988   0.0000000000000000
  0.6598376964403885   0.0398871771799410   0.0000000000000000
  0.6505290121117546   0.0407486821288951   0.0000000000000000
  0.6410191910005383   0.0416153892989160   0.0000000000000000
  0.6313056496470314   0.0424862165552765   0.0000000000000000
  0.6213823079172336   0.0433602824420315   0.0000000000000000
  0.6112489281649386   0.0442362457646169   0.0000000000000000
  0.6008963123926909   0.0451137308907019   0.0000000000000000
  0.5903211292528141   0.0459917803130241   0.0000000000000000
  0.5795184839365645   0.0468692540951747   0.0000000000000000
  0.5684857150099230   0.0477443424041717   0.0000000000000000
  0.5572148862675538   0.0486154402631608   0.0000000000000000
  0.5457024491672809   0.0494805599680832   0.0000000000000000
  0.5339780836677636   0.0503353194116202   0.0000000000000000
  0.5219860728183490   0.0511813660693644   0.0000000000000000
  0.5101253307512127   0.0519891081313360   0.0000000000000000
  0.4985043971600128   0.0527514649709832   0.0000000000000000
  0.4871181100865982   0.0534694955937708   0.0000000000000000
  0.4759663238182478   0.0541439373921026   0.0000000000000000
  0.4650424897306392   0.0547759224024376   0.0000000000000000
  0.4543414694194311   0.0553665338532900   0.0000000000000000
  0.4438615277983380   0.0559167464857066   0.0000000000000000
  0.4335966445555638   0.0564277439227250   0.0000000000000000
  0.4235422171719039   0.0569005367499369   0.0000000000000000
  0.4136931783754329   0.0573360485787389   0.0000000000000000
  0.4040479201781875   0.0577350333573017   0.0000000000000000
  0.3946007843384192   0.0580984587592611   0.0000000000000000
  0.3853459130056055   0.0584273588583778   0.0000000000000000
  0.3762828394437238   0.0587225582688298   0.0000000000000000
  0.3674052759622001   0.0589850521268143   0.0000000000000000
  0.3587104110044708   0.0592156767487264   0.0000000000000000
  0.3501952433465900   0.0594152538281565   0.0000000000000000
  0.3418548081050912   0.0595846279097528   0.0000000000000000
  0.3336858663230149   0.0597246577421592   0.0000000000000000
  0.3256868701986138   0.0598362486465025   0.0000000000000000
  0.3178507769372301   0.0599203474438374   0.0000000000000000
  0.3101776523444911   0.0599777679649948   0.0000000000000000
  0.3026620994593082   0.0600092896252224   0.0000000000000000
  0.2953022098091474   0.0600156089816429   0.0000000000000000
  0.2880942515540157   0.0599974067416477   0.0000000000000000
  0.2810344582773878   0.0599553507162620   0.0000000000000000
  0.2741224198462300   0.0598902308958287   0.0000000000000000
  0.2673508102792782   0.0598027829062179   0.0000000000000000
  0.2607208372897423   0.0596938009430880   0.0000000000000000
  0.2542268737219818   0.0595639532054747   0.0000000000000000
  0.2478699323930078   0.0594139942796022   0.0000000000000000
  0.2416426526986943   0.0592444560641495   0.0000000000000000
  0.2355443386744786   0.0590559928562533   0.0000000000000000
  0.2295742285057687   0.0588492600763349   0.0000000000000000
  0.2237267309732288   0.0586247739586633   0.0000000000000000
  0.2180011540540604   0.0583832555000465   0.0000000000000000
  0.2123936096745636   0.0581252700988444   0.0000000000000000
  0.2069018249031851   0.0578514118247249   0.0000000000000000
  0.2015265925874962   0.0575624139311738   0.0000000000000000
  0.1962639217171782   0.0572587327640815   0.0000000000000000
  0.1911098627978642   0.0569407701058159   0.0000000000000000
  0.1860635373512509   0.0566090833477142   0.0000000000000000
  0.1811225555455632   0.0562641183158228   0.0000000000000000
  0.1762831066659017   0.0559062017034564   0.0000000000000000
  0.1715472965099615   0.0555361405439852   0.0000000000000000
  0.1669099315072494   0.0551541804881659   0.0000000000000000
  0.1623702175183220   0.0547608759938091   0.0000000000000000
  0.1579259317985442   0.0543566416724963   0.0000000000000000
  0.1535748664842349   0.0539418626674859   0.0000000000000000
  0.1493147619729656   0.0535168899310313   0.0000000000000000
  0.1451447283274916   0.0530821904592715   0.0000000000000000
  0.1410625235604109   0.0526380756497570   0.0000000000000000
  0.1370659530359299   0.0521848322503466   0.0000000000000000
  0.1331567814638518   0.0517231967360234   0.0000000000000000
  0.1293276562313525   0.0512528455259629   0.0000000000000000
  0.1255804504092525   0.0507745502773552   0.0000000000000000
  0.1219131281255899   0.0502885988465475   0.0000000000000000
  0.1183237015509818   0.0497952534010120   0.0000000000000000
  0.1148102318092792   0.0492947513229479   0.0000000000000000
  0.1113720175725520   0.0487874812015910   0.0000000000000000
  0.1080070759532941   0.0482736140267307   0.0000000000000000
  0.1047146335147149   0.0477534816268928   0.0000000000000000
  0.1014927513745349   0.0472272179600503   0.0000000000000000
  0.0983395479756496   0.0466949369878610   0.0000000000000000
  0.0952554508934213   0.0461571322873805   0.0000000000000000
  0.0922363866432952   0.0456135046927440   0.0000000000000000
  0.0892828700951544   0.0450645654218522   0.0000000000000000
  0.0863942718297865   0.0445106297655928   0.0000000000000000
  0.0835678320075330   0.0439515803137779   0.0000000000000000
  0.0808019575920066   0.0433874837688950   0.0000000000000000
  0.0780971710598979   0.0428188278852694   0.0000000000000000
[...]
POINT_DATA 6176
SCALARS continuity float
LOOKUP_TABLE default
-0.0007861702164142536
0.0006390164725623692
0.00043420127334627275
0.0003721245974452694
0.0008370332710288984
0.0010681643626021164
0.0011583432956055995
0.0012830001801918288
0.0013878605558716524
0.0014621140218958406
0.0015517157638237139
0.0016198437879714894
0.0016631639978887448
0.001711902821764026
0.0017426480542349692
0.0017651649827937913
0.0018326722814163412
0.0018937412168515985
0.0019680992107457998
0.00201847300032059
0.002043041112885978
0.0020745023907307704
0.0021084943180814364
0.0021290133765975365
0.0021692449157057507
0.0022398724604618422
0.0023192056837648017
0.002390568980633523
0.0024494322873561364
0.0025026683074858887
0.0025647023162081507
0.0026336258602775425
0.0027021586931980754
0.0027559928065063223
0.002799064278143769
0.002857994040628702
0.002928456671353899
0.0030075355887817013
0.003061806766501409
0.0030983559555330673
0.003138370392954175
0.0031775977334283596
0.0032097169207540885
0.003248020700881182
0.003298782335307132
0.0033551595015805452
0.0033998924303162946
0.003429831568294694
0.0034569652166622565
0.0034827899619442075
0.003501764018572535
0.0035155554741856053
0.0035307835310052853
0.0035463794919677783
0.003555448686543306
0.003556016649335441
0.0035511920127294866
0.0035411882498656965
0.003523044317570168
0.0034952905242364037
0.003456727814626599
0.0034081762718534054
0.0033513320450977873
0.003286171167471615
0.003211140317037356
0.0031214701593248353
0.003016031529341626
0.0028975314816060307
0.002766350154108065
0.0026175513341732733
0.0024445795526627585
0.002248268485098702
0.002035840787774019
0.0018124354719147749
0.0015720000122258
0.0013055453326368375
0.0010167354343646484
0.0007085041928560255
0.0003784849499878764
2.7465210372735544e-05
-0.0003381989905157244
-0.0007143740882054096
-0.0010992318719956953
-0.0014875252022998092
-0.0018748644796116251
-0.002384929096389644
-0.002894013386338723
-0.0033169309562857594
-0.0037382919356506207
-0.004141227804603032
-0.004521840284590555
-0.004877454494787651
-0.005208071039570427
-0.00551403939964126
-0.005794181320325496
-0.006048333631123311
-0.006274164937165931
-0.006472315630502771
-0.006647005009207626
-0.006801772142703767
-0.0069395593852525465
-0.00705870768120823
-0.007162333100192737
-0.007254096381029035
-0.007338574599349219
-0.007416966717115031
-0.007487935301442215
-0.007553167721566994
-0.007613651935184941
-0.007673096985861383
-0.0077312187467587345
-0.007784109694595142
-0.007831872041252106
-0.007876341258586213
-0.007917167993693554
-0.007949284384905657
-0.00796847386705555
-0.007975501630437516
-0.007971834481979941
-0.007964550717434037
-0.007957917028503111
-0.007947161863363635
-0.007932975857334138
-0.00791191935499956
-0.00788274558918462
-0.007846171822792165
-0.007799358163616719
-0.0077309869322721506
-0.007647824005674158
-0.007574873549365754
-0.00751263159413463
-0.007450112529521351
-0.007373358177017231
-0.007284730836937273
-0.007182010949648775
-0.0070519070938291645
-0.006908180333350454
-0.0068082155056472665
-0.006718811488499302
-0.006605815081654568
-0.006481956976766741
-0.006354133693067785
-0.006217964651933426
-0.006066603175126711
-0.005897156437555915
-0.005687216782874232
-0.005530046291732867
-0.005424712584259228
-0.005296774324550449
-0.005135933573922268
-0.004955396140729425
-0.004757906541809097
-0.0045249593442097755
-0.0042294701233875865
-0.004070164268301912
-0.003882332411644814
-0.0036932726287902513
-0.0035022700716584635
-0.0033334932069306908
-0.0030959458078151317
-0.0028675455609794786
-0.002630053117781251
-0.0022318842814067754
-0.0020498970061878486
-0.0017727444302173777
-0.0015128714313142313
-0.0012143927117354578
-0.0009875797436024437
-0.0006975741227345887
-0.0004962188183946485
-0.00029012102128548353
8.887281280593462e-05
0.00046330888592579253
0.0007758364867839079
0.001125868853000951
0.0014059114412178632
0.0017253881403754728
0.0022238112865380568
0.002259586402521555
0.002863080978644949
0.0028555527857792935
0.003518863099714607
0.0034107879612384796
0.004187827942913451
0.004114687960466397
0.004962220720499595
0.00488055784584985
0.005775005923869673
0.005650503667085472
0.006672629082593779
0.006274716688764901
0.0067940242748084105
0.006991750171691387
0.0071956211559844815
0.007409231542127739
0.0076732863853842675
0.007895512899627246
0.008050514850094441
0.008204834527694852
0.008314425909398786
0.008353110475618167
0.008243949365684941
0.008018440779219508
0.0076750492153773225
0.007843130777386534
0.006546192246233974
0.005977927789051774
0.005275677440954864
0.00445674499877458
0.003437940487243014
0.002151293983823118
0.0012742521187185045
0.0001217097798260243
-0.000969227390599595
-0.002028112638161498
-0.0028273268442398905
-0.0034331222174239133
-0.004372822810227558
-0.004731350239715996
-0.005628895251339209
-0.005979689344488612
-0.006162439174995444
-0.006330324168729528
-0.006543098235759878
-0.006646918487388383
-0.006710591450651663
-0.006651391118760158
-0.006460039976620477
-0.006347654610161163
-0.006007038924620124
-0.005979413784572173
-0.005585255558883228
-0.005350516213809501
-0.005117036935680186
-0.004938820489802857
-0.00463459198958428
-0.004415957855264994
-0.004054620034190011
-0.003813300613559808
-0.0034172277646606184
-0.0031880926661019045
-0.002786118093615396
-0.002596556853786261
-0.0021528252409906386
-0.001981522802801241
-0.001522047592015133
-0.0013689944414439787
-0.0008786344248905302
-0.0007756450183080466
-0.00042483919179025923
-0.0001532845513518749
0.00019960854622603252
0.00041990206621388376
0.0007690062499377064
0.0010292998903848392
0.0012798518140340063
0.0015169060257785936
0.0017549740531447435
0.002013886630353961
0.002264428554189162
0.0026564189303926143
0.0026850164784183515
0.0029809004778051256
0.0032341135113717555
0.003480005286102786
0.003789167169364892
0.00407152573388999
0.004352632690948693
0.0045217154411344666
0.004671098410235679
0.005017106713676147
0.005025176552086276
0.005258260319917443
0.005484223484020223
0.00570943502962151
0.005958711799215656
0.006190707833781108
0.006339181582223507
0.006478944917584232
0.006644960332924238
0.00681307515991511
0.006970296953439163
0.007122633705210985
0.007274964437195159
0.007429090957655313
0.0075711239854432365
0.007698326074971602
0.007821244570861594
0.00793345370278126
0.008039794384184553
0.008130127679780524
0.008209597530258295
0.008290411598590286
0.008365783376780013
0.008428871713932936
0.00848657723588875
0.008545524292439127
0.008600639127942351
0.008635781203620456
0.008650030452015556
0.008651133411862614
0.008643435355769549
0.008623317928979288
0.008592223839993316
0.008558808608662696
0.008520444915472637
0.008466915102269856
0.008385740701719643
0.008277437467310472
0.008153213212305221
0.008018291148918194
0.007872423512287428
0.007708566594802553
0.007526598470628352
0.007332377185655952
0.0071344660195803
0.006929265323227805
0.006707301481541394
0.00646576950939608
0.006211373524254715
0.005949208771211167
0.005679165777586687
0.005403345045887949
0.005125447369432944
0.004843213431178758
0.004544261708147248
0.004221085451720053
0.00387543415657796
0.003509743672290485
0.0031235258493552036
0.0027131387656245715
0.0022788926804411924
0.0018282272865379912
0.0013697077524943918
0.0009067782601137336
0.00043946520947990363
-3.8566520131994424e-05
-0.0005372224472515977
-0.0010997157927134479
-0.0015656529215278979
-0.0019578537163710582
-0.0023381968955060186
-0.0026900547740566763
-0.0030146362845486926
-0.003326539359391101
-0.003631445350106951
-0.0039230236804359275
-0.004191049484986482
-0.0044282630860849005
-0.004625343613013776
-0.004781141043702637
-0.004919958982286497
-0.005058976853359684
-0.005186935817197195
-0.005286800969019213
-0.005359821419904897
-0.005413870744495473
-0.005450195128640233
-0.005462767930457945
-0.0054540623423503486
-0.005440795574459936
-0.005435949689958904
-0.005434166957199636
-0.005427095998635502
-0.005410104087969183
-0.005380601633263442
-0.005337572345999208
-0.005286325594741144
-0.005243794260160648
-0.005215675953252737
-0.005189212883766789
-0.005154099840388261
-0.0051171894269002715
-0.005082451252954757
-0.005046859859991783
-0.005008686063724169
-0.004968661987762433
-0.004937788796125058
-0.004919752788190954
-0.004904745683367489
-0.004884558504356889
-0.004862246771389477
-0.004840272024149413
-0.004816407516194219
-0.004788627649691081
-0.004759300404564964
-0.004733338908489235
-0.004715158949108532
-0.004696469228643549
-0.004669059291705729
-0.004638620260469674
-0.004608225622704782
-0.004576469943884588
-0.004541619720083919
-0.004507118882674366
-0.004469969785392578
-0.004428458015355412
-0.004372126733003139
-0.0043241462387989356
-0.004282381129597626
-0.004234650979614065
-0.0041874177226492205
-0.004144815040048105
-0.004110158586935722
-0.00407658859585669
-0.004041245670959894
-0.0040165035334362815
-0.00400566368410903
-0.00399913966013757
-0.003989732788180934
-0.0039624652856284515
-0.0039461474024938895
-0.003920615041608963
-0.003937338661082401
-0.003935445823782028
-0.003960246940286459
-0.00398691818848034
-0.003982070152611212
-0.003905567839785138
-0.003826094574303083
-0.0036565402964899548
-0.0038737790840489795
-0.004657621809942595
-0.0005910423007171711
-0.003551142151901419
-0.0023217720537273365
-0.0026913373620863386
-0.003339114241132239
-0.002268070467813832
-0.0009583954521725548
-7.794124962231153e-05
-0.005353739340425467
0.0003783475264511109
0.005829663837135644
0.0007485338038379222
-0.003589832477654157
0.0009974377692951056
0.006061093966370598
0.0011519285937960577
-0.005367200282389278
0.0012113325013778842
0.006314417196365145
0.0012901449941432313
0.00473880140152867
0.0014158328511662038
0.006640565437170933
0.0015046417671968255
-0.005384162417161194
0.0015778099913998003
0.006926501169077987
0.001659152673446569
-0.0012858793361769291
0.0017128684897743177
0.006986288656191172
0.001756549057938441
-0.005397894578604197
0.0017829904299039693
0.006977119455231147
0.001814291008494193
0.004536786371664835
0.0018736944561259972
0.00696707129578031
0.0019439556328088787
-0.0053885336018105676
0.0020005312902014057
0.006843239857841635
0.002065240392141128
-0.002914212322945574
0.0020993370832230796
0.006754919196081949
0.0021302825144811723
-0.005391792514178741
0.002155325465008618
0.006612339665225598
0.0021897932624671945
0.004079102015427061
0.002251835027842171
0.006478904436614066
0.0023263225537314114
-0.005390815135304121
0.0023943351608453315
0.006383455922792614
0.002461745716386167
-0.0013875195007859574
0.0025171623570092263
0.006292395153154725
0.002573158324613161
-0.005395163057058979
0.0026366538154463204
0.005983864730119918
0.0027029851730927157
0.003490036907314505
0.0027683989594573955
0.005781691297373174
0.002815680605512203
-0.005388160319147711
0.002868763549345304
0.005449088169743222
0.002930682859540958
-0.00273082991705806
0.003010468449816345
0.00526617217008994
0.0030811505568223555
-0.0053738892577018665
0.0031308913473814207
0.00488074982909682
0.0031698261567847867
0.0030573068524112697
0.0032107117898389852
0.004676860864498637
0.0032478291761326794
-0.0053512772331845435
0.0032847282954576785
0.004294600795716737
0.003330348099071773
-0.0014685582900052891
0.0033813907678882315
0.0040955235046419595
0.003433871721895567
-0.005348221560638559
0.003470493533483186
0.003751966967191438
0.00349924503734211
0.0024443701626494043
0.0035286351263802826
0.0035611070556921948
0.0035547287268203834
-0.0053129938340157916
0.003574773753128254
0.0033562754209698355
0.0035933596727082623
-0.0028716079732984848
0.003610897627495277
0.0031182659186853308
0.003624374440365282
-0.00527188928135129
0.0036276604599665657
0.0029067311301096345
0.0036249130288876076
0.0023851435384731395
0.003620458916122868
0.0026563152227473685
0.0036108736165521554
-0.0052145718292957305
0.0035936987985521985
0.002392205577477392
0.0035674365246221133
-0.001519086069891339
0.003529867425920703
0.0021699390919738444
0.0034792585814096464
-0.005187691996453986
0.0034190662980616124
0.0018770095621302376
0.0033513460145004497
0.0019029420694295746
0.003274272595415772
0.0016329112059404306
0.0031834101431147876
-0.005133562299904296
0.003077768594410785
0.0013471688938024428
0.002959436178813023
0.002066123090543947
0.0028272762473402217
0.0010514573289128156
0.0026764216272779973
-0.0050687155722432846
0.0025009713742946463
0.0007189663028576689
0.0023032302064072245
0.0015106345113649802
0.0020900692358944294
0.0005361304461742294
0.0018645198992627242
-0.004996716668856258
0.001620433489003416
0.00035238881183218245
0.0013534086837190522
-0.0016058840245643468
0.0010649953687157762
8.510207309567091e-05
0.0007562381255446561
-0.004915674378710761
0.0004241244168799136
-3.8325250817535195e-05
7.21386748288915e-05
0.0010221554488651673
-0.00029256736406755267
-0.0003157610746585531
-0.0006675359267198106
-0.004863179473230976
-0.0010505270000567611
-0.0004140890565243497
-0.0014352620035185133
-0.002691687480944639
-0.0018195035750893603
-0.000586856454127881
-0.002262087391029279
-0.0049547666209662404
-0.0027428213707925346
-0.0010475825678366267
-0.0031668021949472058
0.0006269413979059472
-0.003587544392927346
-0.0012189051275150748
-0.003988804230924804
-0.004730367761316258
-0.0043678888419526095
-0.0015633537259819744
-0.004721646136496726
-0.00167394944147417
-0.005049052619725116
-0.001902246320569005
-0.005351344867116273
-0.004680708564944912
-0.005628296762900013
-0.002139723250738814
-0.005879224281444652
0.00031040345477232137
-0.006101704267788393
-0.0021157626793961476
-0.006295715081377796
-0.00450217551583927
-0.00646577401536374
-0.0023697447842081845
-0.006615771487417171
-0.0031143081739874925
-0.006747553435282971
-0.002467605592659202
-0.006862179093679065
-0.004518641245542013
-0.00695967411428347
-0.002511975498255354
-0.007044791468006239
-0.00038979387984418995
-0.007121664880376768
-0.0027588466630999674
-0.007193197193608677
-0.004418746729979235
-0.007257238619820782
-0.003067926346802511
-0.007315199706910595
-0.0027301752769152664
-0.0073695386355403635
-0.0032268614691311967
-0.007420263313126363
-0.004296894046864831
-0.007469660938182906
-0.0034805940054905378
-0.007515417400518083
-0.00015159387085369113
-0.007557002148542041
-0.0036970224706427113
-0.007594703979914683
-0.00419143861950623
-0.007627712756698721
-0.0038534949263954073
-0.007653565679006874
0.005855903787314411
-0.007668217060320733
-0.003885767797599397
-0.007672271400481081
-0.004253908926609579
-0.007661703976862678
-0.003939804473820529
-0.007644439124026921
-0.0005205797847940558
-0.007629841110792798
-0.004086375536137985
-0.007615064868854908
-0.003914680359132379
-0.007594995830112741
-0.004461511825653861
-0.007568354318485056
-0.0017579706342992305
-0.0075335788103554615
-0.00443718165271082
-0.007492192909568528
-0.0037389745909343812
-0.0074448258645254855
-0.004594662336297079
-0.007375320958483238
-0.0007434063714196584
-0.007282660296622814
-0.004774497687914808
-0.007199796238324999
-0.0038664299819302973
-0.007128554429924699
-0.0049419540630331075
-0.007062328185151433
-0.0024837080950961443
-0.006980219807017042
-0.005089512022562364
-0.006885015339760056
-0.00377633778788705
-0.006795305307654969
-0.005202093753934195
-0.006666801700693452
-0.0010195196736240031
-0.006514777556057361
-0.005190694259699961
-0.006415273775212972
-0.0036556048037921065
-0.00632378369664972
-0.005383609079772271
-0.00621076468638936
-0.0018438926068159724
-0.00608271289711554
-0.005673467899708448
-0.005944821814913348
-0.003503101981924311
-0.00580130308184819
-0.005652820040329805
-0.005674953478700617
-0.0010777173800377005
-0.0056096723607281344
-0.005745872603860062
-0.005324448585909423
-0.003307807192304165
-0.005111572749214907
-0.0058652680341831015
-0.00507130368604476
-0.0034289855254972983
-0.004953542424116102
-0.005961140595150392
-0.0047985853841029154
-0.0031398912701743483
-0.004607027864341207
-0.006060464731231051
-0.004421495917421373
-0.0011199979806935131
-0.004146444057819237
-0.006138555281004099
-0.004054178206285144
-0.0031186642474648205
-0.0036670091727385844
-0.006242793651642996
-0.0035298310497767285
-0.0019332147731705685
-0.003349710944776591
-0.00633270431941206
-0.0032032458605368032
-0.002867456882844902
-0.003110826374873974
-0.006419842760056329
-0.002878582800982385
0.004304211407639603
-0.002608734453954202
-0.006467874621425393
-0.00234061292921676
-0.0028532001218071756
-0.002193825931493183
-0.00653147256890436
-0.0016842373625372033
-0.0022202917878248675
-0.0014965446514222881
-0.006588308338227384
-0.001284043126028857
-0.0027308806548985622
-0.001036318719986067
-0.006637234717978156
-0.0008233705428635349
-0.0013053253182794926
-0.0005663231393954302
-0.00667201714659179
-0.00039129797569346355
-0.002694847414707739
-7.296561378543124e-05
-0.0067075100839556106
-9.99896040525567e-06
-0.002084408170981983
0.0004792362797051961
-0.006746247881840727
0.0006353185692440028
-0.0025991440316826403
0.0011045620748424266
-0.00679375543578232
0.001238403204607607
0.004427167741763131
0.0017014454404037037
-0.006818658759840326
0.001881919337857798
-0.0024324752103296694
0.0023581879401243263
-0.006828247012084407
0.002466975510007485
-0.003537191916698195
0.002868556770363899
-0.0068319227249712365
0.002965515085933155
-0.002177230619679455
0.0033699839136870045
-0.006825564161616593
0.0035490001418492976
-0.001463672391636233
0.0039977039653525314
-0.006813004197463143
0.004232224152864058
-0.0020291818697650704
0.004677429103382349
-0.006794056534444566
0.004959147951810208
-0.002286575446940281
0.005341473064104951
-0.006771912254147392
0.005596073659428708
-0.001726575752609549
0.005855925213024319
-0.006747721414500647
0.006154854055244106
-0.0027972797088130935
0.0063175190588772865
-0.0067232408429170045
0.006522337777952456
-0.001603639480381574
0.00665413855662395
-0.006691026397712318
0.00693177726598673
-0.002121809191431101
0.007044413954248029
-0.006653290493012301
0.007266672186876895
-0.001500605795580811
0.007335408418278512
-0.006614743408491628
0.007513411245892135
-0.0018017820829298158
0.007479328505522666
-0.006569758233749513
0.0073418493062514375
-0.0014210275228149695
0.007083413056170469
-0.006519546649802013
0.006840997838106601
-0.002328117506539935
0.006714279200504507
-0.006463888397885563
0.005959285557412178
-0.0012649332732615772
0.005507164191783371
-0.006400040151076122
0.004906514260046422
-0.0019280959727749516
0.004193371556483426
-0.00632315858404466
0.0033867867705953585
-0.0012026588706258883
0.002510712393591119
-0.006230531719165337
0.0020579168160302047
0.0013913154599404349
0.0011917683824643954
-0.006120764748006135
0.00031454236628818025
-0.001109697864101671
-0.0005470155218430942
-0.005990497897531469
-0.001174207389539024
-0.0020381982290152744
-0.0017321329119116247
-0.005841052417666544
-0.0025339474889409775
-0.0007872379788630125
-0.0033705456385451564
-0.005666351372727568
-0.003751022356914972
-0.002468003818959641
-0.004218223370508392
-0.005463071633643034
-0.004629857174046147
-0.0005693750914545437
-0.005202326180579802
-0.005231358257319176
-0.005393413105001086
-0.00209726650301784
-0.005747131816196377
-0.004971957560647232
-0.005801187788240524
-0.0003309976517455865
-0.00575987302769443
-0.004686767436621751
-0.005711428706422971
-0.001800212191167126
-0.005459808168658375
-0.004375032638011113
-0.005527913348229833
-7.299186555261117e-05
-0.0051875310025639955
-0.004036838314823751
-0.005186301093549389
-0.002162297663090662
-0.0046911396280052645
-0.0036727074415528866
-0.004802293910865736
0.0030601405007685757
-0.004372980121731333
-0.0032859052337577796
-0.004403268065273967
-0.002498716336101967
-0.003943373714393303
-0.002874859293841984
-0.0039039024762101953
0.00022450260499773817
-0.0034261144975739318
-0.002447761137644272
-0.003340937035962178
-0.0022732601143925324
-0.002877693595133999