# vtk DataFile Version 1.0
GRUMMP topologically 2D mesh
ASCII

DATASET UNSTRUCTURED_GRID
POINTS 6176 float
  1.0000000000000000   0.0000000000000000   0.0000000000000000
  0.9979736161243241   0.0002872981906159   0.0000000000000000
  0.9959038003591104   0.0005818082753016   0.0000000000000000
  0.9937894604158818   0.0008826109490225   0.0000000000000000
  0.9916311447855282   0.0011889740049165   0.0000000000000000
  0.9894256878168368   0.0015011074645448   0.0000000000000000
  0.9871732566523234   0.0018189104108560   0.0000000000000000
  0.9848739492731372   0.0021423104928037   0.0000000000000000
  0.9825241245750710   0.0024717658271048   0.0000000000000000
  0.9801244133260449   0.0028071825305054   0.0000000000000000
  0.9776732769852096   0.0031487906039340   0.0000000000000000
  0.9751690039483889   0.0034968357351786   0.0000000000000000
  0.9726117072730877   0.0038512643819321   0.0000000000000000
  0.9700001180350898   0.0042121148976419   0.0000000000000000
  0.9673332227148538   0.0045793859121594   0.0000000000000000
  0.9646079236541195   0.0049533708962095   0.0000000000000000
  0.9618249648196705   0.0053338679490647   0.0000000000000000
  0.9589807878895711   0.0057213439443832   0.0000000000000000
  0.9560767311296049   0.0061156062701256   0.0000000000000000
  0.9531120216710255   0.0065167463399167   0.0000000000000000
  0.9500819018783057   0.0069253778138591   0.0000000000000000
  0.9469876484068450   0.0073412143029309   0.0000000000000000
  0.9438286210030068   0.0077641908681895   0.0000000000000000
  0.9406001269296587   0.0081947829660712   0.0000000000000000
  0.9373041277084813   0.0086325757434285   0.0000000000000000
  0.9339368121646437   0.0090779560824189   0.0000000000000000
  0.9304976431076690   0.0095309377793780   0.0000000000000000
  0.9269838874379289   0.0099918267186165   0.0000000000000000
  0.9233965242394278   0.0104604374002928   0.0000000000000000
  0.9197323684717913   0.0109371203977286   0.0000000000000000
  0.9159901296799260   0.0114219111797446   0.0000000000000000
  0.9121662515702946   0.0119150917142392   0.0000000000000000
  0.9082612640703632   0.0124164093968364   0.0000000000000000
  0.9042711890176098   0.0129261849544228   0.0000000000000000
  0.9001985925103467   0.0134439182275261   0.0000000000000000
  0.8960367883853674   0.0139703538547480   0.0000000000000000
  0.8917881131106570   0.0145051006126241   0.0000000000000000
  0.8874465968544013   0.0150488093430172   0.0000000000000000
  0.8830132689405343   0.0156012428338051   0.0000000000000000
  0.8784843643309772   0.0161627200549514   0.0000000000000000
  0.8738585592690924   0.0167332093564690   0.0000000000000000
  0.8691331845657406   0.0173128340473851   0.0000000000000000
  0.8643080629784704   0.0179014022230632   0.0000000000000000
  0.8593790220315882   0.0184992057974382   0.0000000000000000
  0.8543443022105112   0.0191062525475961   0.0000000000000000
  0.8492020742372332   0.0197225542022908   0.0000000000000000
  0.8439504592998461   0.0203481184762133   0.0000000000000000
  0.8385847225217766   0.0209832807547837   0.0000000000000000
  0.8331043690503205   0.0216278714070098   0.0000000000000000
  0.8275075883744546   0.0222818740978654   0.0000000000000000
  0.8217896079901662   0.0229456038551552   0.0000000000000000
  0.8159499389768221   0.0236188617887649   0.0000000000000000
  0.8099850870934132   0.0243017702717010   0.0000000000000000
  0.8038929332928342   0.0249942623102002   0.0000000000000000
  0.7976697970229181   0.0256964297179088   0.0000000000000000
  0.7913134730328051   0.0264081777898121   0.0000000000000000
  0.7848218596203610   0.0271293903098903   0.0000000000000000
  0.7781898173908960   0.0278602762976724   0.0000000000000000
  0.7714169256365310   0.0286005013921829   0.0000000000000000
  0.7644979701754163   0.0293502351726533   0.0000000000000000
  0.7574308659438134   0.0301093068082177   0.0000000000000000
  0.7502135053150701   0.0308775557618342   0.0000000000000000
  0.7428404612557281   0.0316551512399728   0.0000000000000000
  0.7353096164115749   0.0324418730798164   0.0000000000000000
  0.7276172963491144   0.0332375368705936   0.0000000000000000
  0.7197598859172740   0.0340418579688506   0.0000000000000000
  0.7117355290536627   0.0348543282856948   0.0000000000000000
  0.7035389878799579   0.0356747811793425   0.0000000000000000
  0.6951650952820780   0.0365031090698871   0.0000000000000000
  0.6866122709923126   0.0373388258653197   0.0000000000000000
  0.6778754950330185   0.0381817369178559   0.0000000000000000
  0.6689534383202176   0.0390312029136988   0.0000000000000000
  0.6598376964403885   0.0398871771799410   0.0000000000000000
  0.6505290121117546   0.0407486821288951   0.0000000000000000
  0.6410191910005383   0.0416153892989160   0.0000000000000000
  0.6313056496470314   0.0424862165552765   0.0000000000000000
  0.6213823079172336   0.0433602824420315   0.0000000000000000
  0.6112489281649386   0.0442362457646169   0.0000000000000000
  0.6008963123926909   0.0451137308907019   0.0000000000000000
  0.5903211292528141   0.0459917803130241   0.0000000000000000
  0.5795184839365645   0.0468692540951747   0.0000000000000000
  0.5684857150099230   0.0477443424041717   0.0000000000000000
  0.5572148862675538   0.0486154402631608   0.0000000000000000
  0.5457024491672809   0.0494805599680832   0.0000000000000000
  0.5339780836677636   0.0503353194116202   0.0000000000000000
  0.5219860728183490   0.0511813660693644   0.0000000000000000
  0.5101253307512127   0.0519891081313360   0.0000000000000000
  0.4985043971600128   0.0527514649709832   0.0000000000000000
  0.4871181100865982   0.0534694955937708   0.0000000000000000
  0.4759663238182478   0.0541439373921026   0.0000000000000000
  0.4650424897306392   0.0547759224024376   0.0000000000000000
  0.4543414694194311   0.0553665338532900   0.0000000000000000
  0.4438615277983380   0.0559167464857066   0.0000000000000000
  0.4335966445555638   0.0564277439227250   0.0000000000000000
  0.4235422171719039   0.0569005367499369   0.0000000000000000
  0.4136931783754329   0.0573360485787389   0.0000000000000000
  0.4040479201781875   0.0577350333573017   0.0000000000000000
  0.3946007843384192   0.0580984587592611   0.0000000000000000
  0.3853459130056055   0.0584273588583778   0.0000000000000000
  0.3762828394437238   0.0587225582688298   0.0000000000000000
  0.3674052759622001   0.0589850521268143   0.0000000000000000
  0.3587104110044708   0.0592156767487264   0.0000000000000000
  0.3501952433465900   0.0594152538281565   0.0000000000000000
  0.3418548081050912   0.0595846279097528   0.0000000000000000
  0.3336858663230149   0.0597246577421592   0.0000000000000000
  0.3256868701986138   0.0598362486465025   0.0000000000000000
  0.3178507769372301   0.0599203474438374   0.0000000000000000
  0.3101776523444911   0.0599777679649948   0.0000000000000000
  0.3026620994593082   0.0600092896252224   0.0000000000000000
  0.2953022098091474   0.0600156089816429   0.0000000000000000
  0.2880942515540157   0.0599974067416477   0.0000000000000000
  0.2810344582773878   0.0599553507162620   0.0000000000000000
  0.2741224198462300   0.0598902308958287   0.0000000000000000
  0.2673508102792782   0.0598027829062179   0.0000000000000000
  0.2607208372897423   0.0596938009430880   0.0000000000000000
  0.2542268737219818   0.0595639532054747   0.0000000000000000
  0.2478699323930078   0.0594139942796022   0.0000000000000000
  0.2416426526986943   0.0592444560641495   0.0000000000000000
  0.2355443386744786   0.0590559928562533   0.0000000000000000
  0.2295742285057687   0.0588492600763349   0.0000000000000000
  0.2237267309732288   0.0586247739586633   0.0000000000000000
  0.2180011540540604   0.0583832555000465   0.0000000000000000
  0.2123936096745636   0.0581252700988444   0.0000000000000000
  0.2069018249031851   0.0578514118247249   0.0000000000000000
  0.2015265925874962   0.0575624139311738   0.0000000000000000
  0.1962639217171782   0.0572587327640815   0.0000000000000000
  0.1911098627978642   0.0569407701058159   0.0000000000000000
  0.1860635373512509   0.0566090833477142   0.0000000000000000
  0.1811225555455632   0.0562641183158228   0.0000000000000000
  0.1762831066659017   0.0559062017034564   0.0000000000000000
  0.1715472965099615   0.0555361405439852   0.0000000000000000
  0.1669099315072494   0.0551541804881659   0.0000000000000000
  0.1623702175183220   0.0547608759938091   0.0000000000000000
  0.1579259317985442   0.0543566416724963   0.0000000000000000
  0.1535748664842349   0.0539418626674859   0.0000000000000000
  0.1493147619729656   0.0535168899310313   0.0000000000000000
  0.1451447283274916   0.0530821904592715   0.0000000000000000
  0.1410625235604109   0.0526380756497570   0.0000000000000000
  0.1370659530359299   0.0521848322503466   0.0000000000000000
  0.1331567814638518   0.0517231967360234   0.0000000000000000
  0.1293276562313525   0.0512528455259629   0.0000000000000000
  0.1255804504092525   0.0507745502773552   0.0000000000000000
  0.1219131281255899   0.0502885988465475   0.0000000000000000
  0.1183237015509818   0.0497952534010120   0.0000000000000000
  0.1148102318092792   0.0492947513229479   0.0000000000000000
  0.1113720175725520   0.0487874812015910   0.0000000000000000
  0.1080070759532941   0.0482736140267307   0.0000000000000000
  0.1047146335147149   0.0477534816268928   0.0000000000000000
  0.1014927513745349   0.0472272179600503   0.0000000000000000
  0.0983395479756496   0.0466949369878610   0.0000000000000000
  0.0952554508934213   0.0461571322873805   0.0000000000000000
  0.0922363866432952   0.0456135046927440   0.0000000000000000
  0.0892828700951544   0.0450645654218522   0.0000000000000000
  0.0863942718297865   0.0445106297655928   0.0000000000000000
  0.0835678320075330   0.0439515803137779   0.0000000000000000
  0.0808019575920066   0.0433874837688950   0.0000000000000000
  0.0780971710598979   0.0428188278852694   0.0000000000000000
[...]
POINT_DATA 6176
SCALARS continuity float
LOOKUP_TABLE default
-0.0005793421307440287
0.0022360087154165856
0.0008361801263802708
0.0001575711640934956
0.00042514994192040896
0.0005119151676844398
0.0005159462704765539
0.0005711438606124259
0.0005916345391987071
0.0005678012654539206
0.0005506951915562141
0.0005588249285365828
0.0005023445133481776
0.0004524730843285052
0.0003879741834701592
0.0003125826381990844
0.00027144341688610215
0.0002449926919337306
0.0002103027453066751
0.00021838706491372455
0.00013403037120952437
6.168971896067792e-05
-1.5249905574673972e-05
-0.00012290436076778575
-0.00019135356169401634
-0.0002238018895346962
-0.0002527367037626386
-0.0003201708690717249
-0.00038516560906412794
-0.00045069905466003685
-0.0005067378166032508
-0.0005581429824473123
-0.0006145186369825232
-0.0006883166679889563
-0.0007606948339428746
-0.0008077562277813981
-0.0008407792128376272
-0.0008788086595191733
-0.0009334373242555186
-0.0009942978157622352
-0.0010543819645875427
-0.0011163767048475094
-0.0011818399050306566
-0.0012304870143415721
-0.0012540048405456409
-0.0012709148126546414
-0.0012940339774128633
-0.0013295213666423605
-0.001377622175523164
-0.0014366500770291173
-0.001507511181435529
-0.0015752494671281074
-0.001626990493594467
-0.001665505122199482
-0.001706627223702019
-0.0017619857312418104
-0.0018359954900121428
-0.0019266682334780952
-0.0020323529628930703
-0.002147179661073054
-0.0022574764796745033
-0.0023562889056545342
-0.0024508074830388265
-0.002555776997831625
-0.0026709438592018575
-0.00279356163414468
-0.002917460639044191
-0.0030429818348907474
-0.003181552713889183
-0.0033408051132476847
-0.0035145813534293636
-0.003686366617008278
-0.0038440441358801748
-0.003992498390303519
-0.0041401585746491075
-0.004296731210821789
-0.004464560067931505
-0.004645091877359404
-0.004843143332944991
-0.00504215177446057
-0.005217373148599823
-0.0053553652644430455
-0.005458892785900604
-0.005527743684984762
-0.005572138135830079
-0.005779564239000816
-0.005937644716615783
-0.0059784834602897895
-0.006102290143721523
-0.006244999382687731
-0.006338818715493613
-0.006364627922565903
-0.0063448855870763595
-0.00630752044707863
-0.0062632864687042645
-0.006212449008844859
-0.006165662331424665
-0.006140421720405144
-0.0061324296085367574
-0.006102996669368329
-0.006017397606650783
-0.005884926300348608
-0.005742508343679699
-0.00561430823627801
-0.005499081425087081
-0.005400177158633719
-0.005341225822561277
-0.005329299393030849
-0.005320594852524317
-0.00525224851680349
-0.005117725058125491
-0.004968093155094675
-0.004844930446291887
-0.004743567524622499
-0.0046535659487808734
-0.0045978958825733645
-0.004603768859874442
-0.004640710497893192
-0.004615755618471626
-0.004481236026139645
-0.00429320603834075
-0.004140258083134249
-0.004035844469391279
-0.003949680942684325
-0.003879956070187138
-0.0038653054679862334
-0.003915907348709888
-0.003937421515924066
-0.003834588463593432
-0.003615364177793874
-0.00337819202796
-0.00321232985063799
-0.0030990436009379063
-0.0030374357091302643
-0.0030714812248879707
-0.003144375385185684
-0.003032178582494892
-0.0027709717414648215
-0.0025691217948404614
-0.00244658389672132
-0.002342094846188509
-0.0022159275547808514
-0.0020859855420633532
-0.002040654007946014
-0.002251445524246733
-0.0024529683360988448
-0.002164684783368202
-0.0017479417829963058
-0.0015389239248273885
-0.001427857577066118
-0.0013317090986424286
-0.001262992769207866
-0.0012092343914387215
-0.0018267252705017523
-0.0014511750124258675
-0.0014492516438256373
-0.0012673014963609577
-0.001054311999810145
-0.0009153070446501204
-0.0009660467736766574
-0.0008839988245868606
-0.0007701510208984546
-0.0014142476527739072
-0.0011678091865111755
-0.0012057508013348325
-0.0012511226257467152
-0.0013616843293310483
-0.0013523891670493427
-0.0014304788793715723
-0.0015088833414889991
-0.0012127309612322888
-0.001642247034775965
-0.0018657547211803794
-0.002181928528029745
-0.0023271402295907996
-0.002606175809301995
-0.0026895410583617084
-0.0033368978529471666
-0.0032120812211527956
-0.0039013402103630014
-0.003932838636386925
-0.004595138730641007
-0.004616870206393629
-0.005330613157686449
-0.005522951209866332
-0.006209880200887867
-0.006557617630873059
-0.00718966940504971
-0.007703640257382857
-0.008127288787681779
-0.008809766687689832
-0.009375949411712747
-0.010038955805522172
-0.010548585214306514
-0.011064356585736847
-0.011575226279808885
-0.01211828177097205
-0.012562736622657516
-0.012953079739894466
-0.013267634782013205
-0.013509560423033681
-0.013721078421638826
-0.01379533939650865
-0.013810354595298084
-0.012160685375126096
-0.013400481410312848
-0.011961539578022163
-0.010692160626256806
-0.009090740131453404
-0.007364381785640595
-0.0052992807905576705
-0.00314086483020466
-0.0013144159938649409
0.0010754413674201753
0.0030556193719183363
0.004845939526556219
0.006346885351516488
0.004956674620332802
0.007721569310298118
0.009026869466903311
0.00902045470956977
0.008467181782757894
0.008032389467142199
0.007981663200903764
0.007588633294040285
0.007161867496377525
0.006730895083061856
0.006131135320970852
0.005306207612525759
0.005013598731829024
0.00425264722264923
0.0038219625720971135
0.0032768961562684613
0.0022505417081578436
0.002610765241023332
0.001560575254641912
0.001860414008021968
0.0009391127407502791
0.001182427091429281
0.00034954253346300255
0.000566662341237607
-0.00010863327440460184
0.00017654348632583044
-0.0006464713572253676
-0.0003043757070690812
-0.000999340286470268
-0.0007380267527722001
-0.0013060780583799656
-0.0011679153170206754
-0.0013373751708701518
-0.001800986911128605
-0.00180146794685102
-0.002063827158123909
-0.002010718079046007
-0.002095628229446462
-0.0020365579488296876
-0.002063636276881717
-0.001950477877019558
-0.0018733961403258304
-0.0016219715210525924
-0.0017578906858824771
-0.0015606438820228803
-0.001561383565049576
-0.00152991252270808
-0.0015721717938503583
-0.001681151931437978
-0.0015962080161354918
-0.0014926088551314365
-0.0014329731959596688
-0.0011834381478909833
-0.001029722484511329
-0.0009455014113167534
-0.0008880642354084971
-0.0008156099612864799
-0.0008290535626190825
-0.0007453061601756938
-0.0004918347180402705
-0.000317099942324687
-0.00021177615326222477
-0.00027252359992742744
-0.00021268818333194023
-0.00010627259529834361
-5.604911558563911e-07
8.431661173598279e-05
0.00014165274835776435
0.00021891374900679
0.0003994367074405462
0.0005986300482311044
0.0007702539360760259
0.0008264894338377952
0.0008369729332096733
0.0008864565992226978
0.0009438822129700762
0.0010060444783957193
0.0011246463537903926
0.0012871193366325927
0.001439252146516116
0.001514816679729696
0.001541449862735189
0.0015835258287982853
0.0016450640370572842
0.0017091698330571985
0.0017950499902522942
0.001901043180665374
0.0019979256854004853
0.0020493456889568115
0.0020610788175646883
0.0020650771652085714
0.002070826152328289
0.0020574150593457366
0.0020188286954313547
0.001965980071749866
0.001912352562886931
0.0018548627917237695
0.0017738842612438192
0.0016627730889222912
0.0015417051680427524
0.001451045041224015
0.0014233477988634348
0.0014707744378792847
0.0015930596437339869
0.0017846859559370867
0.0020253418009604004
0.00229711960315248
0.0026022389473957072
0.0029575774012425018
0.003367318886494262
0.0038149877861656293
0.004282803721751572
0.004760218572268471
0.00523600631926636
0.0056901238315638985
0.0061013160431901674
0.00645171329351727
0.006738786200230638
0.006976273799173239
0.007177420600486361
0.007349698652115736
0.00741909923640483
0.0075013699085135265
0.007599371293400126
0.007604007816165287
0.007531396562907678
0.007389752591615801
0.0071894970490819915
0.006956367032325296
0.006716841509036653
0.006477209534007436
0.0062349333926412336
0.005992062413854667
0.005747463157193145
0.005483380780648892
0.005198673940046134
0.004925705884762767
0.004686345434541157
0.004475160103247139
0.004277803596453765
0.004088230534427247
0.003914916951494121
0.0037608805561176366
0.0036071841395441313
0.003437710309998534
0.003255593764008096
0.003073135301119162
0.0029043414733185544
0.0027535271049750156
0.002616720961659845
0.0024874368267423395
0.002354507136138513
0.0022050917035042064
0.0020419163658612896
0.0018856892888033387
0.0017574566584415718
0.0016591209546599854
0.001581034400981395
0.0015138575927067842
0.0014535792427712061
0.0013969354813343573
0.0013395751717530054
0.001279664230442094
0.0012122083581593093
0.001144946649578728
0.001096839925547281
0.00106921642947909
0.0010449499839106661
0.0010152432090519013
0.000981508013842463
0.000943303774244004
0.0009082300661934106
0.0008707280072067464
0.0008207398478412926
0.0007586880459893452
0.0007063049504739793
0.0006676190583808253
0.0006341994764344002
0.0006042562126642045
0.0005685151795022297
0.0005558646411488357
0.000498690836375885
0.00045213272374625043
0.0004231467950206571
0.0003923789869870444
0.0003442897429584507
0.0002851913780947538
0.00022856173340261
0.00021169720427681866
0.00016903803171719917
9.996440642591343e-05
2.1365740904170467e-05
-4.2143773820259544e-05
-0.00010155624370521501
-0.00015745808636242572
-0.00019106875390908695
-0.00019077528028991673
-0.00020290631792799931
-0.00018300321237358212
-0.00013730856217537227
-3.751077239107822e-05
6.903224203069292e-05
0.00023835023060276482
0.0006586793271878437
0.0005154931606021484
-0.0011460933951176256
0.001913075397674972
0.00019665611568856476
8.779915028482772e-05
0.000692745605133125
0.0016973255943573962
0.001778540796079585
0.0020323529345898845
0.00048040623580257767
-0.005215607487278835
0.0005960274078075039
-0.011987824277838725
0.0005003514316776431
-0.0036956406877182695
0.0005588940797996434
-0.012103285429885199
0.0005959786245173207
-0.005191250233995893
0.0005935448786254213
-0.01237385834075165
0.0006053000173394145
-0.007530280398349343
0.0006353403856461233
-0.01266420726077201
0.0006210290738645974
-0.005191364500716985
0.0006041573106917271
-0.012933956860456331
0.0005725378239642388
-0.006803210721716239
0.0005397046342912681
-0.01300723051669903
0.00048409866469652593
-0.005184281327011429
0.0004134995804628613
-0.012529016878276391
0.0003506908610320268
-0.006816987346263467
0.000319759055782609
-0.012614056688034146
0.00029757332046743935
-0.005101598450880267
0.00028347258179040795
-0.01176251231416803
0.00023204950183191322
-0.004816407919203065
0.00017178172236516817
-0.012044640575224334
9.901224433036741e-05
-0.004975166818643795
1.0901358319555455e-05
-0.011020954674652535
-8.543651297526625e-05
-0.005820177520822612
-0.00012874132509130783
-0.010866705124562002
-0.00016878535932198153
-0.0048424948588939734
-0.0001985386305982438
-0.009966132132165953
-0.0002681090803216456
-0.006860799359536349
-0.0003333697375533127
-0.009939547661783742
-0.0003944254452657345
-0.004785389143157676
-0.00044993136211633853
-0.008788403601476829
-0.0005043053460773847
-0.004957860315857958
-0.0005659971196378932
-0.008620051211114201
-0.0006359835050826125
-0.0047600295761020504
-0.0006925047741572355
-0.007517470466153433
-0.0007360521136945417
-0.004579217149943475
-0.0007693073484134572
-0.00756877294651387
-0.0008177058405086947
-0.00473667091942079
-0.0008763241296658343
-0.006452794045144662
-0.0009371575300883709
-0.004184951035341156
-0.0009960243534718007
-0.006565020793745451
-0.0010587507162383302
-0.004731678052356977
-0.001112415832510229
-0.005462480654925178
-0.0011467337203636446
-0.006863900836125868
-0.0011696385683173337
-0.00574810664152359
-0.001191332319917385
-0.004769414073230153
-0.0012241027769382498
-0.00466399369482724
-0.0012652386320801182
-0.0033913783921460223
-0.001313008690842492
-0.004944057184055321
-0.001372313118693584
-0.004802444626608604
-0.0014359040968014768
-0.004134669409622341
-0.001489261566651577
-0.005230175884728548
-0.0015326372795207157
-0.004356900623188919
-0.0015729276180342072
-0.0047473158436093016
-0.0016233038283624184
-0.0033596964603752337
-0.0016873725631277264
-0.003067864030704772
-0.0017634642659104627
-0.003821248763449377
-0.0018533102043466253
-0.004598015260973468
-0.001955643908231271
-0.0027563750403820026
-0.0020604270833292425
-0.006724844799548245
-0.002161391310509359
-0.0032191800268024377
-0.002257974697323476
-0.004396553719847942
-0.002360918416796305
-0.0023879502169041056
-0.0024709970259129757
-0.00229251773072454
-0.002586896628440701
-0.0025772830990287683
-0.002705546597419753
-0.004272189303212639
-0.002826591155277401
-0.0018622430680367873
-0.0029531102848225463
-0.004057225303922946
-0.003092299593419667
-0.002153508816985795
-0.0032478457787215153
-0.004241856692314208
-0.003413529718900688
-0.001209770773575521
-0.003576159607912897
-0.001782434465878823
-0.003733283998472626
-0.0015576715623253198
-0.003883534781469799
-0.004199495393595048
-0.004032840874361859
-0.0010612364220452496
-0.004186003790345616
-0.006533756500345586
-0.004347746971916296
-0.0015934234302834363
-0.004524366138257206
-0.004184803286508754
-0.004716353184088798
-0.0011075513508039545
-0.004907321078969547
-0.0011493261634404207
-0.005072818654086442
-0.001492555207577505
-0.0052026216687118595
-0.0042194642036408984
-0.005295842619065441
-0.0010783397797522532
-0.005352853054653084
-0.005830535872329492
-0.005381741244436528
-0.0010918727710409724
-0.005584200070819318
-0.004169487174318849
-0.0057450503931294
-0.0009906970811737852
-0.005784039067162646
-0.000984423840545989
-0.005899639759115866
-0.0009065713001185723
-0.006042235650444851
-0.004180533180402114
-0.006142034709993504
-0.0009952928805012418
-0.006171924737559951
-0.006409529752219426
-0.006145133306589343
-0.0008234200742231982
-0.0060976738185781285
-0.00402899647797382
-0.00604435289022742
-0.0008135192783707699
-0.005987307224949463
-0.0008229750392897608
-0.005932858595801828
-0.0010361878601936466
-0.005894996940301452
-0.0038015707412228004
-0.005876674503588791
-0.0013895091169799309
-0.00584480488462146
-0.004230309674559529
-0.005761582238628829
-0.0012994557156831806
-0.005624606761115698
-0.0035217176131866748
-0.005466443751722034
-0.001335498814970355
-0.005322020007720907
-1.5003120808591255e-05
-0.005196138585431063
-0.0012717607059882668
-0.005089000974647643
-0.003371583139149101
-0.005015384942352434
-0.0012147362909510117
-0.004987599233481026
0.005041687301384294
-0.004972498575304524
-0.001186518030929998
-0.004908502245344051
-0.0033226872442827693
-0.00477334539246697
-0.001176667526265505
-0.004607158530754864
-0.0006005847622550142
-0.0044609105219083275
-0.0012443120324259177
-0.004347955961874717
-0.0033728764642415366
-0.004252451335488595
-0.0013602619144648352
-0.004185596856655496
-0.005006766338253243
-0.00417209398969666
-0.0017285890108879975
-0.004198386545032115
-0.003345864395875704
-0.00418155078370519
-0.0021081984179954173
-0.004052416754364729
-0.0001546030511466435
-0.0038537125102665816
-0.0022324167984140433
-0.00366980749773068
-0.0033539055708957165
-0.0035513375209102267
-0.002099781950988271
-0.0034599146171329746
-0.006417345476281139
-0.0033884389409132363
-0.0020383729785538713
-0.0033600501049725535
-0.0031443662527852433
-0.003391900306811184
-0.001999657298433917
-0.003424778758249696
-0.0001040437952950418
-0.003336157740824908
-0.002062309122900592
-0.0031200024110528174
-0.0027480941647495564
-0.002861783226983037
-0.0021599294998038265
-0.0026672421307944246
-0.005742034527775815
-0.0025566989891406674
-0.002236552138395594
-0.0025018010134710148
-0.0025693712117706973
-0.002511175081789431
-0.0023246962494637927
-0.00254655822676455
-0.00022021629540046553
-0.002481259610483954
-0.0026562855331542755
-0.002247671945218873
-0.0024969685738248084
-0.0020071556758550785
-0.0028893163216272876
-0.0018738191912256541
-0.006383706647146447
-0.0017678830545586747
-0.0028477097282878384
-0.0016481096796441418
-0.0023771084928558917
-0.0015426857004186122
-0.002889665414124131
-0.0015124818641094318
-0.00014422865075633276
-0.0016273034544183526
-0.0028742575347682803
-0.0018130162945571456
-0.00228224052379206
-0.0016192810695220827
-0.0029024606947453935
-0.0012504768013467346
-0.0036641323896710303
-0.0009919014630787668
-0.0029899527287385076
-0.0008677037305841228
-0.002341274904280757
-0.0007887872784593988
-0.0031775767984708273
-0.0007314316025855681
-0.00014338370487549745
-0.0007074412209093978
-0.003408645868273487
-0.0008085471169677714
-0.002319888187094444
-0.0009893702176377412
-0.003584229265040293
-0.000893214854044185
-0.0063294292995526935
-0.0008349268348310769
-0.003651741775696119
-0.0005662069759896006
-0.002253470807920967
-0.0004168370548602048
-0.0036241806191165335
-0.00046501973046119294
-0.008305358160145673
-0.00044688240082564395
-0.00359419967226052
-0.00041512829352258966
-0.0021883284915596257
-0.0005750716654157939
-0.0036106437358425676
-0.0007936496332932749
-0.006087049975639193
-0.0007639642192882422
-0.003657661150369971
-0.0009489645666694105
-0.002255113088102114
-0.0008787842319435725
-0.0037185868345437647
-0.0010551741996728235
-0.0005614090730102403
-0.0010118439592520568
-0.0038156451782670564
-0.0011092427049019182
-0.0016345133816454693
-0.0009773762366953014
-0.003986430641625284
-0.0011914114861829833
-0.006393255676306693
-0.0015621052889530668
-0.004153111703810906
-0.001798163273259789
-0.0014962335410792162
-0.0020579356045027954
-0.004255002049875159
-0.0022790985949359623
-0.0068289440624160706
-0.0025455116004171564
-0.004257702412961634
-0.002921831681765639
-0.0012776233580360718
-0.0032255832937601
-0.00423884027228209
-0.0034802622291910655
-0.004187663668676883
-0.0038912913761029798
-0.004251886188818682
-0.004200457293325063
-0.0013883984684278277
-0.004567101761509676
-0.0042979927253799675
-0.0051135801872798335
-0.0009281725469301826
-0.005524313887504118
-0.004366744425839845
-0.006131859288074584
-0.0013197144877835486
-0.00660409576722589
-0.0044562856661422776
-0.00727434000665838
-0.006416672266060597
-0.007835820902053
-0.004591789579368316
-0.008545629761630142
-0.0011971516909583546
-0.009081159927403609
-0.004735765015991275
-0.009776755549865394
0.005033855079425575
-0.01029954275915247
-0.004849588984216326
-0.011117089072751933
-0.0012313840756796358
-0.011419268477577457
-0.004900876079140984
-0.012315322161121361
-0.005973967172441123
-0.01265476459389919
-0.004923984584639625
-0.01353103233543707
-0.0013807946520506184
-0.013724202690324372
-0.004962285696382806
-0.014491746288223724
-0.0005097575653360547
-0.014472164821706459
-0.005030475537529703
-0.014961016436872183
-0.001724032186639152
-0.014882075921316728
-0.0051229440845332475
-0.014782510762460196
-0.0064313713330569795
-0.014428373614182383
-0.005235976670720681
-0.013596027219662632
-0.0011019714475393573
-0.012519969711939383
-0.005374099734490185
-0.011263757039557058
-0.0002844721588681697
-0.009687712644885419
-0.005522149104355352
-0.007794514911853409
-0.0011564168538658337
-0.0053455678286682415
-0.00564640926722859
-0.003930121680089453
-0.0017357593884047306
-0.0015830958441687408
-0.005724919497095478
0.000815071365950157
-0.0007679717000588769
0.0029244786047486968
-0.005765772679797418
0.004864250949211099
-0.0005873477241761975
0.006410866599583921
-0.005800010264854335
0.007801318488810604
-0.0010991419278795003
0.008870237182762324
-0.0058447630982002
0.009702219645588834
-0.00633847035416821
0.010461382356156686
-0.005895986649955312
0.010447563458742029
-0.0008789453800074528
0.010334545112870176
-0.00594799391619572
0.010122244672624757
-0.0008607345168935243
0.009783612167813992
-0.005999152232315668
0.009238526236559533
-0.0008713621430059069
0.008657333288012948
-0.006045864260857687
0.008019849372295974
-0.0059374548204058275
0.006979393143534566
-0.006068682562425357
0.00655608081910909
-0.0009264649459121554
0.005696973890240786
-0.006040285479606494
0.005278634924280828
-0.0006530540883184764
0.004461920055085069
-0.005948741739122929
0.004230601140519619
-9.269910772863319e-05
0.0035617005671576447