# vtk DataFile Version 1.0
GRUMMP topologically 2D mesh
ASCII

DATASET UNSTRUCTURED_GRID
POINTS 6176 float
  1.0000000000000000   0.0000000000000000   0.0000000000000000
  0.9979736161243241   0.0002872981906159   0.0000000000000000
  0.9959038003591104   0.0005818082753016   0.0000000000000000
  0.9937894604158818   0.0008826109490225   0.0000000000000000
  0.9916311447855282   0.0011889740049165   0.0000000000000000
  0.9894256878168368   0.0015011074645448   0.0000000000000000
  0.9871732566523234   0.0018189104108560   0.0000000000000000
  0.9848739492731372   0.0021423104928037   0.0000000000000000
  0.9825241245750710   0.0024717658271048   0.0000000000000000
  0.9801244133260449   0.0028071825305054   0.0000000000000000
  0.9776732769852096   0.0031487906039340   0.0000000000000000
  0.9751690039483889   0.0034968357351786   0.0000000000000000
  0.9726117072730877   0.0038512643819321   0.0000000000000000
  0.9700001180350898   0.0042121148976419   0.0000000000000000
  0.9673332227148538   0.0045793859121594   0.0000000000000000
  0.9646079236541195   0.0049533708962095   0.0000000000000000
  0.9618249648196705   0.0053338679490647   0.0000000000000000
  0.9589807878895711   0.0057213439443832   0.0000000000000000
  0.9560767311296049   0.0061156062701256   0.0000000000000000
  0.9531120216710255   0.0065167463399167   0.0000000000000000
  0.9500819018783057   0.0069253778138591   0.0000000000000000
  0.9469876484068450   0.0073412143029309   0.0000000000000000
  0.9438286210030068   0.0077641908681895   0.0000000000000000
  0.9406001269296587   0.0081947829660712   0.0000000000000000
  0.9373041277084813   0.0086325757434285   0.0000000000000000
  0.9339368121646437   0.0090779560824189   0.0000000000000000
  0.9304976431076690   0.0095309377793780   0.0000000000000000
  0.9269838874379289   0.0099918267186165   0.0000000000000000
  0.9233965242394278   0.0104604374002928   0.0000000000000000
  0.9197323684717913   0.0109371203977286   0.0000000000000000
  0.9159901296799260   0.0114219111797446   0.0000000000000000
  0.9121662515702946   0.0119150917142392   0.0000000000000000
  0.9082612640703632   0.0124164093968364   0.0000000000000000
  0.9042711890176098   0.0129261849544228   0.0000000000000000
  0.9001985925103467   0.0134439182275261   0.0000000000000000
  0.8960367883853674   0.0139703538547480   0.0000000000000000
  0.8917881131106570   0.0145051006126241   0.0000000000000000
  0.8874465968544013   0.0150488093430172   0.0000000000000000
  0.8830132689405343   0.0156012428338051   0.0000000000000000
  0.8784843643309772   0.0161627200549514   0.0000000000000000
  0.8738585592690924   0.0167332093564690   0.0000000000000000
  0.8691331845657406   0.0173128340473851   0.0000000000000000
  0.8643080629784704   0.0179014022230632   0.0000000000000000
  0.8593790220315882   0.0184992057974382   0.0000000000000000
  0.8543443022105112   0.0191062525475961   0.0000000000000000
  0.8492020742372332   0.0197225542022908   0.0000000000000000
  0.8439504592998461   0.0203481184762133   0.0000000000000000
  0.8385847225217766   0.0209832807547837   0.0000000000000000
  0.8331043690503205   0.0216278714070098   0.0000000000000000
  0.8275075883744546   0.0222818740978654   0.0000000000000000
  0.8217896079901662   0.0229456038551552   0.0000000000000000
  0.8159499389768221   0.0236188617887649   0.0000000000000000
  0.8099850870934132   0.0243017702717010   0.0000000000000000
  0.8038929332928342   0.0249942623102002   0.0000000000000000
  0.7976697970229181   0.0256964297179088   0.0000000000000000
  0.7913134730328051   0.0264081777898121   0.0000000000000000
  0.7848218596203610   0.0271293903098903   0.0000000000000000
  0.7781898173908960   0.0278602762976724   0.0000000000000000
  0.7714169256365310   0.0286005013921829   0.0000000000000000
  0.7644979701754163   0.0293502351726533   0.0000000000000000
  0.7574308659438134   0.0301093068082177   0.0000000000000000
  0.7502135053150701   0.0308775557618342   0.0000000000000000
  0.7428404612557281   0.0316551512399728   0.0000000000000000
  0.7353096164115749   0.0324418730798164   0.0000000000000000
  0.7276172963491144   0.0332375368705936   0.0000000000000000
  0.7197598859172740   0.0340418579688506   0.0000000000000000
  0.7117355290536627   0.0348543282856948   0.0000000000000000
  0.7035389878799579   0.0356747811793425   0.0000000000000000
  0.6951650952820780   0.0365031090698871   0.0000000000000000
  0.6866122709923126   0.0373388258653197   0.0000000000000000
  0.6778754950330185   0.0381817369178559   0.0000000000000000
  0.6689534383202176   0.0390312029136988   0.0000000000000000
  0.6598376964403885   0.0398871771799410   0.0000000000000000
  0.6505290121117546   0.0407486821288951   0.0000000000000000
  0.6410191910005383   0.0416153892989160   0.0000000000000000
  0.6313056496470314   0.0424862165552765   0.0000000000000000
  0.6213823079172336   0.0433602824420315   0.0000000000000000
  0.6112489281649386   0.0442362457646169   0.0000000000000000
  0.6008963123926909   0.0451137308907019   0.0000000000000000
  0.5903211292528141   0.0459917803130241   0.0000000000000000
  0.5795184839365645   0.0468692540951747   0.0000000000000000
  0.5684857150099230   0.0477443424041717   0.0000000000000000
  0.5572148862675538   0.0486154402631608   0.0000000000000000
  0.5457024491672809   0.0494805599680832   0.0000000000000000
  0.5339780836677636   0.0503353194116202   0.0000000000000000
  0.5219860728183490   0.0511813660693644   0.0000000000000000
  0.5101253307512127   0.0519891081313360   0.0000000000000000
  0.4985043971600128   0.0527514649709832   0.0000000000000000
  0.4871181100865982   0.0534694955937708   0.0000000000000000
  0.4759663238182478   0.0541439373921026   0.0000000000000000
  0.4650424897306392   0.0547759224024376   0.0000000000000000
  0.4543414694194311   0.0553665338532900   0.0000000000000000
  0.4438615277983380   0.0559167464857066   0.0000000000000000
  0.4335966445555638   0.0564277439227250   0.0000000000000000
  0.4235422171719039   0.0569005367499369   0.0000000000000000
  0.4136931783754329   0.0573360485787389   0.0000000000000000
  0.4040479201781875   0.0577350333573017   0.0000000000000000
  0.3946007843384192   0.0580984587592611   0.0000000000000000
  0.3853459130056055   0.0584273588583778   0.0000000000000000
  0.3762828394437238   0.0587225582688298   0.0000000000000000
  0.3674052759622001   0.0589850521268143   0.0000000000000000
  0.3587104110044708   0.0592156767487264   0.0000000000000000
  0.3501952433465900   0.0594152538281565   0.0000000000000000
  0.3418548081050912   0.0595846279097528   0.0000000000000000
  0.3336858663230149   0.0597246577421592   0.0000000000000000
  0.3256868701986138   0.0598362486465025   0.0000000000000000
  0.3178507769372301   0.0599203474438374   0.0000000000000000
  0.3101776523444911   0.0599777679649948   0.0000000000000000
  0.3026620994593082   0.0600092896252224   0.0000000000000000
  0.2953022098091474   0.0600156089816429   0.0000000000000000
  0.2880942515540157   0.0599974067416477   0.0000000000000000
  0.2810344582773878   0.0599553507162620   0.0000000000000000
  0.2741224198462300   0.0598902308958287   0.0000000000000000
  0.2673508102792782   0.0598027829062179   0.0000000000000000
  0.2607208372897423   0.0596938009430880   0.0000000000000000
  0.2542268737219818   0.0595639532054747   0.0000000000000000
  0.2478699323930078   0.0594139942796022   0.0000000000000000
  0.2416426526986943   0.0592444560641495   0.0000000000000000
  0.2355443386744786   0.0590559928562533   0.0000000000000000
  0.2295742285057687   0.0588492600763349   0.0000000000000000
  0.2237267309732288   0.0586247739586633   0.0000000000000000
  0.2180011540540604   0.0583832555000465   0.0000000000000000
  0.2123936096745636   0.0581252700988444   0.0000000000000000
  0.2069018249031851   0.0578514118247249   0.0000000000000000
  0.2015265925874962   0.0575624139311738   0.0000000000000000
  0.1962639217171782   0.0572587327640815   0.0000000000000000
  0.1911098627978642   0.0569407701058159   0.0000000000000000
  0.1860635373512509   0.0566090833477142   0.0000000000000000
  0.1811225555455632   0.0562641183158228   0.0000000000000000
  0.1762831066659017   0.0559062017034564   0.0000000000000000
  0.1715472965099615   0.0555361405439852   0.0000000000000000
  0.1669099315072494   0.0551541804881659   0.0000000000000000
  0.1623702175183220   0.0547608759938091   0.0000000000000000
  0.1579259317985442   0.0543566416724963   0.0000000000000000
  0.1535748664842349   0.0539418626674859   0.0000000000000000
  0.1493147619729656   0.0535168899310313   0.0000000000000000
  0.1451447283274916   0.0530821904592715   0.0000000000000000
  0.1410625235604109   0.0526380756497570   0.0000000000000000
  0.1370659530359299   0.0521848322503466   0.0000000000000000
  0.1331567814638518   0.0517231967360234   0.0000000000000000
  0.1293276562313525   0.0512528455259629   0.0000000000000000
  0.1255804504092525   0.0507745502773552   0.0000000000000000
  0.1219131281255899   0.0502885988465475   0.0000000000000000
  0.1183237015509818   0.0497952534010120   0.0000000000000000
  0.1148102318092792   0.0492947513229479   0.0000000000000000
  0.1113720175725520   0.0487874812015910   0.0000000000000000
  0.1080070759532941   0.0482736140267307   0.0000000000000000
  0.1047146335147149   0.0477534816268928   0.0000000000000000
  0.1014927513745349   0.0472272179600503   0.0000000000000000
  0.0983395479756496   0.0466949369878610   0.0000000000000000
  0.0952554508934213   0.0461571322873805   0.0000000000000000
  0.0922363866432952   0.0456135046927440   0.0000000000000000
  0.0892828700951544   0.0450645654218522   0.0000000000000000
  0.0863942718297865   0.0445106297655928   0.0000000000000000
  0.0835678320075330   0.0439515803137779   0.0000000000000000
  0.0808019575920066   0.0433874837688950   0.0000000000000000
  0.0780971710598979   0.0428188278852694   0.0000000000000000
[...]
POINT_DATA 6176
SCALARS continuity float
LOOKUP_TABLE default
-0.0029258631637315534
-0.002786256836317036
-0.002772980875196053
-0.0027741952505075974
-0.002774962481394036
-0.002775660716567843
-0.0027771051592395354
-0.002778651940469912
-0.0027803645163780376
-0.002782134865120793
-0.0027837571302918676
-0.0027856966486407824
-0.002787714502486742
-0.0027897105416761713
-0.0027915919684099425
-0.002793728174534193
-0.002795995002013857
-0.00279815937040072
-0.0027999826596946144
-0.0028022137905826658
-0.002804277234888058
-0.0028063021001642338
-0.002808203231017699
-0.00280993132641804
-0.002811882395853077
-0.002814147611460514
-0.002816530445769547
-0.002818814088764442
-0.002821053484950973
-0.002823272365901237
-0.002825528144574074
-0.002827801137765719
-0.0028300843462701754
-0.0028323638692327024
-0.0028348259755245297
-0.002837681743219859
-0.002840802777324534
-0.0028440907608507367
-0.0028473320146117625
-0.0028505497202808553
-0.0028538719738228258
-0.002857282093277751
-0.0028607832300878255
-0.0028646208847762783
-0.002868847500959746
-0.002873292047968248
-0.0028777310323438924
-0.002882077200099302
-0.002886432461459482
-0.002890891670015185
-0.002895526471242654
-0.00290053312661585
-0.0029060070604491088
-0.0029118005712036018
-0.0029176908674825343
-0.002923572523866232
-0.0029294765465933915
-0.0029355127721888445
-0.0029417749021878985
-0.002948425080194114
-0.0029556075016571796
-0.00296328718200368
-0.002971271089385973
-0.002979437862964586
-0.00298777479106939
-0.0029963422186026906
-0.0030052081362489666
-0.0030144066195238167
-0.0030239329871827995
-0.0030338385105730336
-0.0030442850833881153
-0.0030554147589889158
-0.0030671850490844948
-0.0030794367289725634
-0.0030920219817372366
-0.0031049159253239947
-0.0031182699326693718
-0.003132260479201326
-0.003147082527799574
-0.003162957244573842
-0.003179932907268265
-0.0031978225537485938
-0.0032164726179314557
-0.0032360185041612533
-0.00325630023811113
-0.0032778010210173228
-0.0032990456002690324
-0.0033199025379151057
-0.003341084093620596
-0.0033622619698807244
-0.0033834055499404347
-0.0034044799420741086
-0.0034254957307384313
-0.003446504258883557
-0.0034674815310364545
-0.0034883669094050713
-0.003509115946816972
-0.0035297742554708618
-0.0035503959433251376
-0.003570952527334534
-0.003591340533871731
-0.003611530438999942
-0.0036315595087975374
-0.0036514146477082477
-0.0036710346208422293
-0.0036903393895505662
-0.003709312646651203
-0.0037280394333240327
-0.00374665064445307
-0.003765153756715533
-0.0037833965182151414
-0.0038013050999592376
-0.003818800299130542
-0.0038358533440098802
-0.0038523712802798313
-0.0038682209897191564
-0.0038833810733192643
-0.003898189020009462
-0.003913093101372265
-0.00392792945270189
-0.003942261146638315
-0.003955709803449601
-0.0039682706993868725
-0.003980038543873781
-0.0039909153277703415
-0.004000597761571756
-0.004009224032676131
-0.004017955762032764
-0.004027393029795751
-0.004036899520201177
-0.004045354280205742
-0.004052248605644253
-0.004057800247888056
-0.004061818825169165
-0.004063634375455972
-0.004064257034964226
-0.0040672363442501545
-0.004071229359663533
-0.004072936113880805
-0.0040725911663528295
-0.004070926253406633
-0.004068198103933289
-0.0040642430879585505
-0.004057737656666839
-0.004046993364140057
-0.004035166934608134
-0.00403121222563609
-0.004028917550417035
-0.004021013416805363
-0.0040097316195014535
-0.003996272230924823
-0.003979614478686932
-0.0039603394503324564
-0.003932330899877945
-0.003923594741682019
-0.0039036730535117093
-0.003882958585733292
-0.003861608453436791
-0.0038396847638180083
-0.0038118116226194833
-0.003783772450180162
-0.003753517297209872
-0.003710461338827171
-0.0036870639911595633
-0.0036510695386090582
-0.0036132212438083604
-0.0035719315932840234
-0.003531188053187646
-0.0034854524867068896
-0.003440301263561932
-0.003389746230784651
-0.003320949679940517
-0.0032584808662792985
-0.0031940033150078696
-0.0031264474374335365
-0.0030555988547669847
-0.0029820950866219953
-0.00289676032228393
-0.0028311179739116087
-0.002726537739829625
-0.0026519629193908234
-0.0025377828204482217
-0.0024585750613373
-0.0023277733304839718
-0.002233538622778293
-0.0020877266094626755
-0.0019785608026823215
-0.0018165210227806018
-0.001692152385192954
-0.0015102809846640251
-0.0013764730184520585
-0.0011736840603165932
-0.0009882828046367026
-0.0007984133302002438
-0.0005970368017120426
-0.00038100949574918885
-0.0001515081794059813
9.481292464000039e-05
0.0003599988983944599
0.0006492725641210821
0.0009642381763588536
0.0013045540379310369
0.0016638679331378904
0.002047179411993978
0.0024102247294593435
0.002747380664179986
0.0031277612715212527
0.0034922335394065233
0.0038074542442681847
0.0040590561425209535
0.004240762690880625
0.0043252813219915335
0.004303188739725422
0.0041984733022997845
0.004014841113107692
0.0037583640138390668
0.0034516853033957724
0.003154577582926598
0.002820284955422287
0.002402180450652408
0.0020032791396818266
0.0016148285441062143
0.0012444325346645047
0.000900648206043178
0.0005826711015916064
0.0002886779733075239
2.454960123757415e-05
-0.00022060739111236723
-0.00045155446633439786
-0.0006619847462188824
-0.0008777553454276718
-0.0010666754416900324
-0.00128369623450377
-0.001434833965257182
-0.0016179448055032852
-0.0017493113337611057
-0.001912007318122445
-0.002028697752443559
-0.002175359856518616
-0.0022771380769638777
-0.002407908421914014
-0.002497990085492381
-0.0026200941521471633
-0.0026959123926756966
-0.0028076180395293763
-0.0028730817402587137
-0.002974381358233814
-0.0030301850508733753
-0.0031109178351022694
-0.0031794364200217447
-0.0032440584903090314
-0.0032998699741925816
-0.0033713679317195866
-0.0034320116879018375
-0.0034839011945769468
-0.0035341246477602725
-0.0035793472580763312
-0.0036241431053915902
-0.0036636476232674246
-0.003701432892421275
-0.0037218352450865168
-0.0037650642153094632
-0.0037945950437611874
-0.0038243086839546965
-0.003853664117932267
-0.003875811143713976
-0.003897849446954488
-0.003921449614033121
-0.0039434860173742405
-0.00396462498011935
-0.003975832427125272
-0.004002488364157431
-0.004017992066486117
-0.004031242988762439
-0.0040423505574257125
-0.004047837007743476
-0.004053015806247008
-0.004063223309958752
-0.004075258438814203
-0.004084136749538819
-0.004090511610377288
-0.0040951132526523895
-0.004098562108190297
-0.004100864023891113
-0.004101947173215228
-0.004100559405326924
-0.004096713577458609
-0.0040932212688041935
-0.004091887300856386
-0.0040916712918287225
-0.004089689042897145
-0.0040852203726737014
-0.004079090170931723
-0.0040715977783669
-0.004062520927647788
-0.004052512781585518
-0.004042790055352403
-0.00403387352093278
-0.004024956061892502
-0.004014834602631207
-0.004003366370511927
-0.00399089375286572
-0.0039775077805464226
-0.003963282318627077
-0.0039485450269247414
-0.003933759051318163
-0.003919078811333808
-0.003904093257539801
-0.0038884905281795987
-0.003872312793733684
-0.0038556317141924604
-0.0038385145961634644
-0.003821026342219913
-0.0038031688946170298
-0.0037849677152100667
-0.00376653674330777
-0.0037480805688894646
-0.00372959093531455
-0.0037109255352170446
-0.0036920149884765237
-0.0036729039762666716
-0.0036536391979272243
-0.003634195655205598
-0.0036145201484613096
-0.003594674096064896
-0.0035747521534415924
-0.003554779805309786
-0.0035347144897475125
-0.0035145576368672054
-0.0034943294553584745
-0.003474078803673417
-0.003453830227805781
-0.0034335645655216326
-0.003413204107538695
-0.0033927522536024973
-0.003372290685096343
-0.0033518362232390266
-0.0033316922018705912
-0.003311213233301795
-0.003290428393238834
-0.00327066318111559
-0.0032515106070969547
-0.0032331543852849387
-0.0032155579214551535
-0.003198923869593826
-0.0031833980862608227
-0.00316889077426857
-0.0031551767444880177
-0.0031420566834614513
-0.003129316964770875
-0.0031168021579039014
-0.003104643825812652
-0.003093129042552163
-0.0030823479295939336
-0.003072142745680845
-0.0030623657881467025
-0.0030529809729750376
-0.003043964813491429
-0.003035203041643368
-0.003026536201461081
-0.0030179210704391226
-0.0030094624511202766
-0.0030013439543918594
-0.002993780734078516
-0.002986788358460222
-0.0029801575135542614
-0.0029736996622375766
-0.0029673169202191745
-0.002960914846058689
-0.002954516941786619
-0.0029484296335747155
-0.0029429148807086553
-0.0029378110559840245
-0.0029328582901932744
-0.0029280155906188637
-0.0029232980697009555
-0.002918713984734597
-0.0029141563589323376
-0.0029094830454393524
-0.0029048511264635397
-0.0029007071029112093
-0.002897118840092475
-0.0028937802957027404
-0.002890515658973847
-0.0028873334817848947
-0.002884272669007875
-0.00288128528077512
-0.0028782258473198726
-0.002875076033109296
-0.0028720901542718448
-0.002869387816407747
-0.0028670798305138433
-0.0028649465798868327
-0.0028628147534291637
-0.002860672217898757
-0.002858422866955554
-0.0028560872164836142
-0.002853597513819451
-0.0028515325415315275
-0.0028497317879042556
-0.0028477417320804032
-0.002845603140721437
-0.0028433737711488095
-0.002841094465592643
-0.002838743622247311
-0.002836207515243142
-0.0028340614015852153
-0.002831597772899804
-0.0028289696519013053
-0.0028263868960649308
-0.002824061562315743
-0.002821534044225393
-0.0028189517929708527
-0.0028165828087260507
-0.0028144381346731154
-0.0028121376470623813
-0.002809848599598354
-0.0028075567927739755
-0.002804831016205851
-0.0028023072778690103
-0.0027982490531096825
-0.0027956973085631227
-0.002806375568404786
-0.002800854114889654
-0.0028187633835994545
-0.0028221981008530826
-0.0028081095440072364
-0.002794422931542195
-0.002802039762656986
-0.0028065858214656246
-0.0027875030376106644
-0.0035684330479623
-0.002774569111106027
0.0027583277609452956
-0.002773677257369184
-0.002249322146167706
-0.0027743168215177065
0.0024315797722872325
-0.002775213348905685
-0.003580986660462583
-0.002776631250536129
0.0020254235613649633
-0.00277792828606987
0.0003261774802247336
-0.0027794774095124086
0.0016346566066052918
-0.0027811299287200356
-0.003593208526893654
-0.002783332640982257
0.0012316535471421338
-0.0027851755917372998
-0.0031446564968401376
-0.0027873139557859482
0.0010167292909093256
-0.0027892692739970417
-0.0036049260019285993
-0.0027911262971067993
0.0006406604924451575
-0.0027928923234663656
-1.2823951918385667e-05
-0.0027948254013365204
0.0004717505811821169
-0.0027968773977731613
-0.0036162203224516178
-0.0027995237267664347
0.00013369758726448653
-0.0028014306334158525
-0.0028466370020671836
-0.0028035821893345916
5.818233362568041e-06
-0.0028056042898969335
-0.003626647812866303
-0.002807435708415036
-0.0002987633786159947
-0.0028090977942098645
-0.00026579140917595747
-0.0028114473712082437
-0.00041064368951142564
-0.0028136093440510558
-0.0036365989313589604
-0.002816152198839759
-0.0006830235937645943
-0.0028179046829745146
-0.003148232965442326
-0.002820138647044158
-0.0007741298303130851
-0.002822376335261927
-0.003645411295387981
-0.0028246382528266402
-0.001040863613307958
-0.0028269091904805066
-0.000569202124389673
-0.002829167770195734
-0.0011208527330642173
-0.002831431396286129
-0.0036533946574072596
-0.0028339919052555126
-0.001323908862155795
-0.002836844056660233
-0.0025376061854984265
-0.0028400036674068882
-0.001439536293858402
-0.0028432315578690074
-0.003660763090338248
-0.0028464799566679465
-0.001614128239338813
-0.0028497194020033565
-0.000821205941904552
-0.002853054558197928
-0.0017141575945024024
-0.002856433764657089
-0.003667498995961984
-0.002859986817876328
-0.0018726246652098373
-0.0028639138525097634
-0.0031522466342259613
-0.0028681723338549827
-0.0019564416131062287
-0.0028726269281887547
-0.003674128701533172
-0.0028770263002107573
-0.0021003372159948655
-0.002881364571536615
-0.0009750508626523213
-0.002885732532438634
-0.0021708978573074618
-0.002890182847061918
-0.00367971921902574
-0.0028948479678831828
-0.0022497305347913433
-0.002899938341886976
-0.0027999303443855678
-0.002905464397666978
-0.0024197876397118166
-0.0029112715231673246
-0.003686657223380806
-0.002917144214690375
-0.0024326191233178755
-0.00292300177309148
-0.0012223554719341225
-0.0029289078281406174
-0.0025904979485708883
-0.002934944995271292
-0.003692154251477768
-0.0029412270715016824
-0.0026441762207555894
-0.0029479447146047127
-0.003155788570607094
-0.0029552106647787934
-0.002692014631746662
-0.002962928563487966
-0.0036967303707787346
-0.0029709158203616763
-0.002792511028399963
-0.0029790760955078653
-0.0014035849312346179
-0.002987418699470065
-0.002839615082392428
-0.002996006020306337
-0.0036989687568954135
-0.0030048914015104785
-0.0029308579637608257
-0.0030140913278721773
-0.0020820857628647705
-0.003023605381593237
-0.002973991492439246
-0.0030335283342059864
-0.0036992051112044676
-0.0030440525126590227
-0.003066160301221927
-0.0030552691603874917
-0.0015530415499704917
-0.003067088341491341
-0.0030872720129687076
-0.003079339813597167
-0.0036982944774674475
-0.0030918890881841557
-0.003158094732268574
-0.0031047649113095832
-0.003158937293234652
-0.0031181312122161822
-0.0032427822985572658
-0.00313215266017563
-0.003696161977058482
-0.003147055567168837
-0.0032506734401563696
-0.003163053883358311
-0.0016957444280285288
-0.0031801142978087208
-0.003324229536737801
-0.0031980108121379036
-0.003694679838842497
-0.003216641570223672
-0.003310640482708813
-0.0032361801406834284
-0.002828199146485183
-0.0032564507804068946
-0.0033324598935579285
-0.003273830794382381
-0.0037159083281668405
-0.003293489303149888
-0.0034272848055449875
-0.003313972542894207
-0.001866214399518936
-0.003334922180336675
-0.003440279886311539
-0.0033559406624323078
-0.0036941886634714108
-0.0033769527216666825
-0.0035104988232457267
-0.003397870553452773
-0.0031601138388266947
-0.00341869408649313
-0.0035740605941945807
-0.003439484636793422
-0.003698526818112926
-0.003460234931958657
-0.003614687722266688
-0.003480889523561847
-0.002033910909647001
-0.0035013999310599176
-0.0036086455417126077
-0.00352180161619698
-0.0036871373345205246
-0.003542162215252308
-0.0036477275178163045
-0.003562480911611997
-0.002510045987075267
-0.0035826502832030692
-0.003651430322540926
-0.0036025754636312022
-0.0037009026153157487
-0.003622281852358544
-0.0036508597100372306
-0.0036417966652538564
-0.0020703348891021084
-0.0036610647749824718
-0.0036841916796725156
-0.0036800144046244443
-0.0036938312190189946
-0.003698626117109626
-0.0037250118320804396
-0.003716978233206816
0.0018492105570345955
-0.003735191329491499
-0.003735600049693249
-0.0037533116637838903
-0.003682900673410569
-0.0037711898385430105
-0.0037718942696493654
-0.0037886585850712188
-0.0022749719187658206
-0.003805670081302096
-0.003798710329145321
-0.0038221833832780454
-0.0036701815645157764
-0.003838147369552492
-0.0038182300801598364
-0.0038534648762027185
-0.0028076009797355765
-0.0038681511997945344
-0.003812300730686311
-0.0038824108041514067
-0.0036989988220096207
-0.0038966204251401127
-0.003805527090853312
-0.003910865105815602
-0.002367357101152085
-0.003924609598300108
-0.0038192220060608577
-0.003937456427808515
-0.0036539338565693517
-0.003949225146571132
-0.003861134740984223
-0.00396014712369234
-0.003159061961457337
-0.003970146316057128
-0.0038425126784750727
-0.003979145755835838
-0.003627104738492563
-0.003987212049524745
-0.003858973016644064
-0.003994924127640357
-0.0024732159728328667
-0.004003211950099798
-0.003874811464590675
-0.004011635377346986
-0.0036707636675947
-0.004019207967928568
-0.0038870886520532832
-0.004025099934659455
-0.0028211355025076395
-0.0040292636251329774
-0.0038963130712108174
-0.004031933245008059
-0.0036623928427994695
-0.0040332829592983595
-0.003902630176080219
-0.004033213395101488
-0.0024691265305785324
-0.004034821853745789
-0.0038901444387765423
-0.00403770751614474
-0.0036451007015917427
-0.00403885146942393
-0.0038977885770038203
-0.004037093075841275
-0.003157501821509518
-0.00403378363253264
-0.003917113719528668
-0.004029038277217682
-0.0036210835405485827
-0.004022664709829616
-0.0039033889448108236
-0.004014287119968224
-0.0026186046638741094
-0.004015458930429372
-0.0039059910029355083
-0.003994980928539262
-0.003586917326475772
-0.003983934476633459
-0.003908337553271413
-0.003987966758272666
-0.0022561154280524034
-0.003980485186799994
-0.003908943437359588
-0.003967418418188388
-0.0035515357410604337
-0.00395063059323182
-0.00390778975928658
-0.003929870203452078
-0.0028142894843702546
-0.0039063494575318726
-0.0039041808284035304
-0.0039030274164921475
-0.003580538891602964
-0.003863994866232803
-0.003899310884528872
-0.0038489602443111085
-0.003154908847514627
-0.003826817162358405
-0.0038935079977614464
-0.003812187590251159
-0.0035267861132965298
-0.0037962000457025446
-0.00388965807099654
-0.0037649114100214483
0.002127960313332327
-0.0037281079741349646
-0.003884667219580385
-0.0036871572278260136
-0.0035425531677492506
-0.003668514342083968
-0.0038793567976006947
-0.0036060659606363564
-0.002866335445717992
-0.0035767611658924963
-0.0038731924074722163
-0.0035436714141208053
-0.0035285587841496933
-0.0035069716415421217
-0.0038660950742239546
-0.0034639666722972185
-0.002853743609836161
-0.003418888440525645
-0.0038579606919416135
-0.0033736432621770764
-0.003536022878543933
-0.0033021808609447765
-0.0038484926093153298
-0.0032847712666691296
-0.0031524472697309755
-0.0031927678031349067
-0.0038382223688113856
-0.0031574370604155904
-0.0035261273274763832
-0.00306017474787728
-0.00382717454003533
-0.003018633275182618
-0.0026232549023140436
-0.0029126677886110166
-0.0038158771148821893
-0.0028593051075239875
-0.003488418241596822
-0.0027314429924615467
-0.0038042192527430623
-0.0026893598018381294
-0.0024815874554758592
-0.0025535302930993252
-0.0037921395691152904
-0.002505387915865597
-0.003420571391402504
-0.0023587425465316945
-0.00377952723858719
-0.002294395168250549
-0.00290062614109321
-0.0021321503091280706
-0.0037662488906814607
-0.0020538396481855517
-0.0034128174592906505
-0.0018755355801853852
-0.00375232008241828
-0.0017820097456025803
-0.0031782104317862325
-0.0015883698097089365
-0.0037376686605576017
-0.0014547511539434149
-0.0033140446685372936
-0.0012719466910976983
-0.003722569942162624
-0.0011188584986947718
0.0022566525980130038
-0.0009407437215014614
-0.003706917341283267
-0.0007449690336796031
-0.003300690634862032
-0.0005523853747782336
-0.0036909145704117604
-0.0003295028279854473
-0.0028246560668298048
-0.00010868687144484018
-0.00367460129931016
0.00014641305268683972
-0.0033159209843846432
0.0003992723052879646
-0.0036580903004360676
0.0006986717355479535
-0.0028509148239885267
0.0010013942751649618
-0.003641333951371106
0.0013637476573067923
-0.003366935360379485
0.001737775900928936
-0.003624222261787336
0.002133372807934526
-0.0031525535888383164
0.00249615098335988
-0.003606723544591691
0.0029136253463531887
-0.0032930543188387108
0.003281262655566306
-0.0035888651459432814
0.0036134957834576256
-0.0029061118614636073
0.0038966115520341475
-0.003570739871715786
0.004113988011451505
-0.003287305535112358
0.004259553060159082
-0.0035523194672261956
0.004328038670141558
-0.001599135437083711
0.0043265471243258
-0.003533587378736883
0.004243503452051479
-0.0033010455335577673
0.00408712648651207
-0.0035146182924158122
0.0038638669710338272
-0.0029334605088410003
0.003581024815826278
-0.003495540226469668
0.003217301958381473
-0.0031643047659351137
0.002827572892447857
-0.0034763901289310206
0.0024753616966719217
-0.0031562050122240256
0.002063621548912158
-0.003457098064265779
0.0016658870841145207
-0.0030601519550092033
0.0012758132076076223
-0.0034376087606431123
0.0009470712710157067
-0.003004772351143534
0.000620034669267494
-0.0034179511205321145
0.0003410545143715937
-0.0029828580717224636
7.599623604377774e-05
-0.003398196640618325
-0.00016793822830802132
-0.002839174675472424
-0.00039507682818565234
-0.003378346620155418
-0.0006457148522956453
-0.0029464842866594246
-0.0008159899075304721