# vtk DataFile Version 1.0
GRUMMP topologically 2D mesh
ASCII

DATASET UNSTRUCTURED_GRID
POINTS 6176 float
  1.0000000000000000   0.0000000000000000   0.0000000000000000
  0.9979736161243241   0.0002872981906159   0.0000000000000000
  0.9959038003591104   0.0005818082753016   0.0000000000000000
  0.9937894604158818   0.0008826109490225   0.0000000000000000
  0.9916311447855282   0.0011889740049165   0.0000000000000000
  0.9894256878168368   0.0015011074645448   0.0000000000000000
  0.9871732566523234   0.0018189104108560   0.0000000000000000
  0.9848739492731372   0.0021423104928037   0.0000000000000000
  0.9825241245750710   0.0024717658271048   0.0000000000000000
  0.9801244133260449   0.0028071825305054   0.0000000000000000
  0.9776732769852096   0.0031487906039340   0.0000000000000000
  0.9751690039483889   0.0034968357351786   0.0000000000000000
  0.9726117072730877   0.0038512643819321   0.0000000000000000
  0.9700001180350898   0.0042121148976419   0.0000000000000000
  0.9673332227148538   0.0045793859121594   0.0000000000000000
  0.9646079236541195   0.0049533708962095   0.0000000000000000
  0.9618249648196705   0.0053338679490647   0.0000000000000000
  0.9589807878895711   0.0057213439443832   0.0000000000000000
  0.9560767311296049   0.0061156062701256   0.0000000000000000
  0.9531120216710255   0.0065167463399167   0.0000000000000000
  0.9500819018783057   0.0069253778138591   0.0000000000000000
  0.9469876484068450   0.0073412143029309   0.0000000000000000
  0.9438286210030068   0.0077641908681895   0.0000000000000000
  0.9406001269296587   0.0081947829660712   0.0000000000000000
  0.9373041277084813   0.0086325757434285   0.0000000000000000
  0.9339368121646437   0.0090779560824189   0.0000000000000000
  0.9304976431076690   0.0095309377793780   0.0000000000000000
  0.9269838874379289   0.0099918267186165   0.0000000000000000
  0.9233965242394278   0.0104604374002928   0.0000000000000000
  0.9197323684717913   0.0109371203977286   0.0000000000000000
  0.9159901296799260   0.0114219111797446   0.0000000000000000
  0.9121662515702946   0.0119150917142392   0.0000000000000000
  0.9082612640703632   0.0124164093968364   0.0000000000000000
  0.9042711890176098   0.0129261849544228   0.0000000000000000
  0.9001985925103467   0.0134439182275261   0.0000000000000000
  0.8960367883853674   0.0139703538547480   0.0000000000000000
  0.8917881131106570   0.0145051006126241   0.0000000000000000
  0.8874465968544013   0.0150488093430172   0.0000000000000000
  0.8830132689405343   0.0156012428338051   0.0000000000000000
  0.8784843643309772   0.0161627200549514   0.0000000000000000
  0.8738585592690924   0.0167332093564690   0.0000000000000000
  0.8691331845657406   0.0173128340473851   0.0000000000000000
  0.8643080629784704   0.0179014022230632   0.0000000000000000
  0.8593790220315882   0.0184992057974382   0.0000000000000000
  0.8543443022105112   0.0191062525475961   0.0000000000000000
  0.8492020742372332   0.0197225542022908   0.0000000000000000
  0.8439504592998461   0.0203481184762133   0.0000000000000000
  0.8385847225217766   0.0209832807547837   0.0000000000000000
  0.8331043690503205   0.0216278714070098   0.0000000000000000
  0.8275075883744546   0.0222818740978654   0.0000000000000000
  0.8217896079901662   0.0229456038551552   0.0000000000000000
  0.8159499389768221   0.0236188617887649   0.0000000000000000
  0.8099850870934132   0.0243017702717010   0.0000000000000000
  0.8038929332928342   0.0249942623102002   0.0000000000000000
  0.7976697970229181   0.0256964297179088   0.0000000000000000
  0.7913134730328051   0.0264081777898121   0.0000000000000000
  0.7848218596203610   0.0271293903098903   0.0000000000000000
  0.7781898173908960   0.0278602762976724   0.0000000000000000
  0.7714169256365310   0.0286005013921829   0.0000000000000000
  0.7644979701754163   0.0293502351726533   0.0000000000000000
  0.7574308659438134   0.0301093068082177   0.0000000000000000
  0.7502135053150701   0.0308775557618342   0.0000000000000000
  0.7428404612557281   0.0316551512399728   0.0000000000000000
  0.7353096164115749   0.0324418730798164   0.0000000000000000
  0.7276172963491144   0.0332375368705936   0.0000000000000000
  0.7197598859172740   0.0340418579688506   0.0000000000000000
  0.7117355290536627   0.0348543282856948   0.0000000000000000
  0.7035389878799579   0.0356747811793425   0.0000000000000000
  0.6951650952820780   0.0365031090698871   0.0000000000000000
  0.6866122709923126   0.0373388258653197   0.0000000000000000
  0.6778754950330185   0.0381817369178559   0.0000000000000000
  0.6689534383202176   0.0390312029136988   0.0000000000000000
  0.6598376964403885   0.0398871771799410   0.0000000000000000
  0.6505290121117546   0.0407486821288951   0.0000000000000000
  0.6410191910005383   0.0416153892989160   0.0000000000000000
  0.6313056496470314   0.0424862165552765   0.0000000000000000
  0.6213823079172336   0.0433602824420315   0.0000000000000000
  0.6112489281649386   0.0442362457646169   0.0000000000000000
  0.6008963123926909   0.0451137308907019   0.0000000000000000
  0.5903211292528141   0.0459917803130241   0.0000000000000000
  0.5795184839365645   0.0468692540951747   0.0000000000000000
  0.5684857150099230   0.0477443424041717   0.0000000000000000
  0.5572148862675538   0.0486154402631608   0.0000000000000000
  0.5457024491672809   0.0494805599680832   0.0000000000000000
  0.5339780836677636   0.0503353194116202   0.0000000000000000
  0.5219860728183490   0.0511813660693644   0.0000000000000000
  0.5101253307512127   0.0519891081313360   0.0000000000000000
  0.4985043971600128   0.0527514649709832   0.0000000000000000
  0.4871181100865982   0.0534694955937708   0.0000000000000000
  0.4759663238182478   0.0541439373921026   0.0000000000000000
  0.4650424897306392   0.0547759224024376   0.0000000000000000
  0.4543414694194311   0.0553665338532900   0.0000000000000000
  0.4438615277983380   0.0559167464857066   0.0000000000000000
  0.4335966445555638   0.0564277439227250   0.0000000000000000
  0.4235422171719039   0.0569005367499369   0.0000000000000000
  0.4136931783754329   0.0573360485787389   0.0000000000000000
  0.4040479201781875   0.0577350333573017   0.0000000000000000
  0.3946007843384192   0.0580984587592611   0.0000000000000000
  0.3853459130056055   0.0584273588583778   0.0000000000000000
  0.3762828394437238   0.0587225582688298   0.0000000000000000
  0.3674052759622001   0.0589850521268143   0.0000000000000000
  0.3587104110044708   0.0592156767487264   0.0000000000000000
  0.3501952433465900   0.0594152538281565   0.0000000000000000
  0.3418548081050912   0.0595846279097528   0.0000000000000000
  0.3336858663230149   0.0597246577421592   0.0000000000000000
  0.3256868701986138   0.0598362486465025   0.0000000000000000
  0.3178507769372301   0.0599203474438374   0.0000000000000000
  0.3101776523444911   0.0599777679649948   0.0000000000000000
  0.3026620994593082   0.0600092896252224   0.0000000000000000
  0.2953022098091474   0.0600156089816429   0.0000000000000000
  0.2880942515540157   0.0599974067416477   0.0000000000000000
  0.2810344582773878   0.0599553507162620   0.0000000000000000
  0.2741224198462300   0.0598902308958287   0.0000000000000000
  0.2673508102792782   0.0598027829062179   0.0000000000000000
  0.2607208372897423   0.0596938009430880   0.0000000000000000
  0.2542268737219818   0.0595639532054747   0.0000000000000000
  0.2478699323930078   0.0594139942796022   0.0000000000000000
  0.2416426526986943   0.0592444560641495   0.0000000000000000
  0.2355443386744786   0.0590559928562533   0.0000000000000000
  0.2295742285057687   0.0588492600763349   0.0000000000000000
  0.2237267309732288   0.0586247739586633   0.0000000000000000
  0.2180011540540604   0.0583832555000465   0.0000000000000000
  0.2123936096745636   0.0581252700988444   0.0000000000000000
  0.2069018249031851   0.0578514118247249   0.0000000000000000
  0.2015265925874962   0.0575624139311738   0.0000000000000000
  0.1962639217171782   0.0572587327640815   0.0000000000000000
  0.1911098627978642   0.0569407701058159   0.0000000000000000
  0.1860635373512509   0.0566090833477142   0.0000000000000000
  0.1811225555455632   0.0562641183158228   0.0000000000000000
  0.1762831066659017   0.0559062017034564   0.0000000000000000
  0.1715472965099615   0.0555361405439852   0.0000000000000000
  0.1669099315072494   0.0551541804881659   0.0000000000000000
  0.1623702175183220   0.0547608759938091   0.0000000000000000
  0.1579259317985442   0.0543566416724963   0.0000000000000000
  0.1535748664842349   0.0539418626674859   0.0000000000000000
  0.1493147619729656   0.0535168899310313   0.0000000000000000
  0.1451447283274916   0.0530821904592715   0.0000000000000000
  0.1410625235604109   0.0526380756497570   0.0000000000000000
  0.1370659530359299   0.0521848322503466   0.0000000000000000
  0.1331567814638518   0.0517231967360234   0.0000000000000000
  0.1293276562313525   0.0512528455259629   0.0000000000000000
  0.1255804504092525   0.0507745502773552   0.0000000000000000
  0.1219131281255899   0.0502885988465475   0.0000000000000000
  0.1183237015509818   0.0497952534010120   0.0000000000000000
  0.1148102318092792   0.0492947513229479   0.0000000000000000
  0.1113720175725520   0.0487874812015910   0.0000000000000000
  0.1080070759532941   0.0482736140267307   0.0000000000000000
  0.1047146335147149   0.0477534816268928   0.0000000000000000
  0.1014927513745349   0.0472272179600503   0.0000000000000000
  0.0983395479756496   0.0466949369878610   0.0000000000000000
  0.0952554508934213   0.0461571322873805   0.0000000000000000
  0.0922363866432952   0.0456135046927440   0.0000000000000000
  0.0892828700951544   0.0450645654218522   0.0000000000000000
  0.0863942718297865   0.0445106297655928   0.0000000000000000
  0.0835678320075330   0.0439515803137779   0.0000000000000000
  0.0808019575920066   0.0433874837688950   0.0000000000000000
  0.0780971710598979   0.0428188278852694   0.0000000000000000
[...]
POINT_DATA 6176
SCALARS continuity float
LOOKUP_TABLE default
0.006829252670231483
0.0027879935542218666
0.0018369196969665093
0.0019560425017555697
0.0021514023758623
0.0020861580416132028
0.002006158859542376
0.0018243816139575624
0.0016458242977416095
0.0015117036773765159
0.0013386658903198855
0.0012165766069339868
0.0011207281595732677
0.0009978389060742699
0.0008976481903457236
0.0007969122005636082
0.0005992966724841866
0.0004257291975722139
0.00024362606580225092
0.00012161862094563307
4.3579324193179115e-05
-4.786743088588734e-05
-0.00013435266660885586
-0.00019637507884962818
-0.0002904671514976588
-0.00043474584302506767
-0.0005866386066765828
-0.0007168089118970339
-0.0008072745962046802
-0.0008786829470552428
-0.0009542769045948207
-0.001026663873653713
-0.0010870874192012176
-0.0011344605883716649
-0.0011876070840160173
-0.0012830061156307018
-0.0013935878489804317
-0.0015092473122596802
-0.0015755341543662502
-0.001611323330674442
-0.0016588481539092734
-0.001710959392900101
-0.0017685948591280583
-0.0018604100757234924
-0.0019750430817813774
-0.002085866988133923
-0.002158613855764937
-0.002196124988354367
-0.0022326671826290428
-0.0022814923419715487
-0.0023376723323228887
-0.0024224307031527254
-0.0025396991947602534
-0.0026581196505490955
-0.0027446724886223666
-0.002792441411161894
-0.002826204102735932
-0.0028643651713826214
-0.0029069405471240334
-0.002963310515087239
-0.0030453231318814246
-0.0031333513581793056
-0.0031993422947195803
-0.003241882834785777
-0.0032803560100635927
-0.003323124344395157
-0.0033610833774508626
-0.0033882965215320444
-0.0034098545958812687
-0.003441324490639994
-0.0034903023222598206
-0.0035487059998642956
-0.0035970098351060286
-0.003623808398463969
-0.0036286516500837218
-0.003609899073737114
-0.0035634177307033946
-0.003492541700436407
-0.0034092565421766563
-0.0033274101279639414
-0.0032478217297695843
-0.0031594881036639587
-0.003049107132713417
-0.002903497723623227
-0.002685181133524622
-0.0023174600840052267
-0.002113157659527817
-0.0019440198211423656
-0.0016649571600870275
-0.0013322737589127728
-0.0009989951920044333
-0.0006735485173397734
-0.00034541785914968677
-8.917406781810604e-06
0.0003318461980687401
0.0006732972808452131
0.0010178362319676123
0.0013667918678228921
0.0017017455138412406
0.0019923821523023756
0.0022202738113342147
0.002396958413331256
0.0025377750630627503
0.0026452301446598337
0.0027198183226781643
0.0027758592470736015
0.0028353937664388597
0.002900283192538788
0.0029411408931367825
0.0029272644458795153
0.0028656106008057222
0.0027944747726357487
0.0027453813361017964
0.0027191291463776585
0.002723087532514405
0.002780888365661942
0.0029009990234651196
0.003052174283588584
0.0031705794442267003
0.0032075493363263917
0.0031834358202340435
0.0031700343337262705
0.0031926956269636066
0.0032482266386153823
0.0033347353555628996
0.0034662411677320293
0.003641289981377114
0.0038341161055621895
0.003967148321950054
0.00395509485893756
0.003860068777228778
0.0037875785068495023
0.0037977761751369073
0.003871105316228768
0.004017426375781164
0.004287038891914721
0.004537472564518475
0.004450029507174635
0.004241445880031113
0.004183072760183464
0.004199769518014581
0.00421790793404618
0.0042296198653360715
0.0042734915380435
0.004541088673370981
0.00518736492714468
0.005206058107812119
0.00472010539539805
0.004355631677234386
0.004209192565317774
0.00417271935571031
0.004198109364361473
0.004291264362574393
0.005778914564715457
0.005046009054219629
0.005309260143556266
0.0050392447564753
0.004902565433163192
0.004459559165323653
0.004436502899345336
0.004326211403158496
0.004069547973891828
0.0056238451888484765
0.004902558915923274
0.0053196439430312934
0.005334365182681862
0.0054924904078731945
0.0052133819826354
0.0052720509397579645
0.005111687587479578
0.004562147663094989
0.004791232682371594
0.005241691009664468
0.005429951120865824
0.005741245039986876
0.005675153446141933
0.005582352116092543
0.007075074697676347
0.005576836836598703
0.007159509267803186
0.005538841051383672
0.007114075013052513
0.004796955332439176
0.006670444182502369
0.00459857196610488
0.006705809704249666
0.00479938846675973
0.006999188206779422
0.005180714338569966
0.007761186837267608
0.005094812120491856
0.005460570846122521
0.005210282094430118
0.004628658112553463
0.004135514671815573
0.0037726102844510665
0.0036834589072209938
0.003242686050854709
0.003036564849989021
0.0026907044466805245
0.0027226815726527154
0.0020322628892065243
0.0009500435072172123
5.278468478448057e-05
0.00234285220174732
0.0021804548494743538
0.0016335975615769404
0.001531918792543365
0.002405200389485433
0.0030307295098807533
0.002957866069742562
0.004336796293904953
0.005381614216922121
0.0063377663052726465
0.0073831431753225915
0.00890461402364836
0.01128502170131121
0.0122268306956872
0.013434456478545761
0.013218285120428564
0.014342110334961529
0.01573636866330416
0.016436889126497777
0.016276055920149045
0.01630323112894647
0.01601571438892289
0.01561937975605655
0.015712322532673455
0.015472722316496655
0.015482870721697847
0.01453100108848355
0.014621665197817294
0.01369570918033238
0.014453094602083737
0.012158067445177258
0.013189512798018683
0.010913586620829115
0.011923779565700097
0.009705666974619324
0.01084088108437875
0.008685169824473819
0.009778807258637974
0.0074357759440899975
0.009080628786832318
0.0064814494429572276
0.008128518777332738
0.005617912259547739
0.007390966133006912
0.005334890022314118
0.005252625750496108
0.0052067597125807965
0.005280975979319575
0.004572736073493702
0.004442020726913861
0.004241451286599001
0.0037707996470840517
0.0035754605134575477
0.003070621972908229
0.0028840759897187434
0.0024263972402798176
0.0035828208843175628
0.0017248251905420606
0.0019298393620552918
0.0018040334655696241
0.0016854969575750094
0.0021764558991794257
0.0024339544723113228
0.0025200096996778796
0.0022760553126347787
0.0017958221024838507
0.002320489606135349
0.0009044002516726684
0.0010534937919038086
0.00118780965067837
0.001450492324202326
0.0020046599260313026
0.0022920082374935737
0.0020238515328939873
0.0015819994082943933
0.0014749718387540556
0.0015047354292223505
0.0015519204297748145
0.0015810412416957294
0.0016127201188139988
0.0017228455229432054
0.00198936148573183
0.002234395431613809
0.0022354174947871995
0.0019315521881048568
0.0016424880784766795
0.001537041417161594
0.0015933876768654191
0.0017306744115519385
0.0019482903879910276
0.0022261417162645967
0.002414822188567401
0.0023860998218843995
0.0022158779825886803
0.0020620331514413265
0.002026615544158579
0.0021061493467586234
0.002259293883768673
0.0024730833022686034
0.002688851591037352
0.002811313467140441
0.002807168077232122
0.00273178846878602
0.0026885647535335898
0.002719171615702195
0.0027906393247519555
0.0028787878594986683
0.0029873804984402712
0.0031303792147602855
0.0033048852739131205
0.003467331863688823
0.003577735863122862
0.0036471013336542924
0.0037376926784767213
0.0038981007216658424
0.004117896674552127
0.004365800331815184
0.0046223978917009564
0.00485734631713354
0.005029120012465134
0.005133739057601738
0.00521121040192688
0.0052901241966061925
0.005366148140877807
0.0054207658171191424
0.005450135668028296
0.005460889318824477
0.005456065753317622
0.005417973390071866
0.0053132354451578155
0.005120659036991861
0.0048722203737255245
0.004672730496307401
0.004603592594992741
0.004247103189364516
0.0036299660787202075
0.0033848673311377086
0.0031916645181842584
0.002982211761628002
0.0027607990233243823
0.002537046119934904
0.0023109507698113774
0.002081902175734545
0.0018537743412339587
0.0016227196558506885
0.0013954946986245666
0.00120212286602462
0.0010742862614155522
0.0009856917345590589
0.0008729045848717789
0.0007245862591193573
0.0005725441784338205
0.0004341959954943602
0.00029565714486207655
0.00014599916329846688
1.0477073776246737e-05
-6.319445776277404e-05
-7.585769318566072e-05
-8.088731057781715e-05
-0.00013750302491323627
-0.00025511208424226756
-0.0004021339225830152
-0.0005465600012928306
-0.0006596891870899925
-0.0006856928866262318
-0.0006169938716892871
-0.0005431854965319362
-0.0005411197280050804
-0.0005700372352347689
-0.0005802983173581256
-0.0005752729946748142
-0.0005714746391417221
-0.0005651716556305523
-0.0005153028479909083
-0.0003811579799973622
-0.00021084044333996148
-0.00010602050261791771
-8.361924820879571e-05
-8.791343717703083e-05
-8.611351674303388e-05
-8.196083438619586e-05
-7.997563653209001e-05
-6.370780526218731e-05
1.3587256448151943e-06
9.709649131389418e-05
0.00016399992904782054
0.00019524839805775638
0.0001717057953109205
0.00012054468129301489
6.280102973071946e-05
7.45300705879067e-06
-3.858863606466367e-05
-7.30337952333432e-05
-0.00011823886203947809
-0.0002199268254438232
-0.00036708922357472104
-0.0005138082261932409
-0.0006454047595608519
-0.0007642705565876028
-0.0008697534779184616
-0.0009689326049983425
-0.0009643939161015076
-0.0009749071033556754
-0.000926184509184942
-0.0008854086533465901
-0.0008547352139410527
-0.000832124425093024
-0.0007144264983856883
-0.0005755399812874365
-0.00031810403420009007
-9.380835123507745e-05
0.00020596475733100864
0.0005767593099162333
0.0009661735675222129
0.001309432799278753
0.0017657966862873577
0.0022195453615214823
0.002156628719357218
0.0026070546302584905
0.0023491095486774228
0.002894539446006973
0.0021367038608644125
0.0009173991509265553
-5.579269241767704e-05
0.0010830388316128033
0.0019022440216115049
0.0018217522095715746
0.0021480012414804637
0.001940174874411085
0.0018286680400004976
0.0021123023807384507
0.0029912567636497956
0.0021221301140456517
0.002533705343325343
0.0020626128463442656
0.0021736994429607274
0.0019379994824497374
0.002200684084959971
0.001835098475793643
0.007523240064237083
0.0016120973047310124
0.002573722296860445
0.001460518469766312
0.002175738217946714
0.0013156053454236108
0.0012029534967888324
0.001162131736719849
0.0024237390096604177
0.0010442061081466952
0.0030762609725020046
0.0009307305006919271
0.0021596242492848863
0.0008382654098921686
0.0013798327861649531
0.0007312462755863355
0.008107571289317834
0.0005679998810633005
0.0033353363971173893
0.00038664009770126385
0.0021602151034204407
0.00021690020769270392
0.0017567883783438211
7.11840554414333e-05
0.0038722138999347884
-2.4536930250238734e-05
0.003994718571856032
-0.00011565330901840738
0.002106866608000145
-0.00018380252023716075
0.0027717899765592456
-0.00025295173821315246
0.007998517882452753
-0.00039375381771723225
0.004466904026619157
-0.0005411432059079231
0.0020511047608599295
-0.0006890935514605483
0.0038033172215112617
-0.0007932582891658188
0.0027102413474140194
-0.0008750774615892188
0.005270221835059467
-0.0009514352532272192
0.002024865849182666
-0.0010255582055618568
0.003778674908069107
-0.0010940101641349557
0.007380759533198649
-0.001149898928518396
0.00486521462996507
-0.0011826487544248695
0.002065863369647649
-0.0012455472353606186
0.003487740728380603
-0.0013430061124368713
0.0033944281429304202
-0.0014681075333338011
0.004512095374364219
-0.001570313497316844
0.0021437789236337123
-0.0016321896409115448
0.0033457958201880554
-0.0016750259563956837
0.007390384849255701
-0.0017247991165950792
0.004262942567377636
-0.001772270108755812
0.0022574201164161944
-0.0018343745748855497
0.00329499698179683
-0.0019328689960745459
0.0028485614773146417
-0.0020469023951731717
0.004321991613799252
-0.002153281697506887
0.002309146611635317
-0.00221708872567643
0.00354473005034327
-0.00225779913423936
0.008217471784029222
-0.0023015377989191645
0.004633321456798509
-0.0023493986286780067
0.00245746378447535
-0.002409276017284394
0.004761106957859223
-0.002502004723017725
0.00434646731914469
-0.0026201575807477282
0.005259447986428603
-0.0027342362733180836
0.0025034408592729865
-0.002814052641961647
0.004919587683404648
-0.0028605011875685537
0.009517296513082222
-0.0029005029593387314
0.005520899692202299
-0.002940414528219929
0.0025981330661929733
-0.002983054474294917
0.004650443194825851
-0.0030462384475505627
0.0030419615042502493
-0.0031313718367153125
0.005234940788342151
-0.0032146462602521504
0.002558780946117733
-0.0032746705624606054
0.00454378327775469
-0.0033192913604697017
0.008986390246754263
-0.0033612740388632763
0.004698486201749864
-0.0034040385861364895
0.002608560981245892
-0.003440731941764469
0.0040343148679427955
-0.00346834302924666
0.002183237512421275
-0.003494294975629967
0.003987388723715721
-0.003532899380643209
0.0027065776755739583
-0.0035886581023652307
0.0030719050700172687
-0.0036471101363249703
0.009267970621999749
-0.003693249497832597
0.0033011118147010456
-0.0037184860271587935
0.002840539918786512
-0.003725082805164725
0.0034300495063840776
-0.003707149171405279
0.0030589465343645963
-0.0036610722094060893
0.003920525603249209
-0.0035927108793165335
0.003004543971876027
-0.003514095490156275
0.0038433690500219845
-0.0034376667453984255
0.008717935678237627
-0.0033611026691672957
0.004078756533243169
-0.0032745448502758357
0.0030770577911536628
-0.0031652748538108337
0.00397341854920348
-0.0030201613581988264
0.004441415076536118
-0.0027921133210820808
0.003903061583476419
-0.0024560327903399475
0.003052071567663612
-0.002261173784103209
0.0033441953318801496
-0.002110063303190283
0.008305745208409142
-0.0018415752704486826
0.0033341063713135197
-0.0015171818269855992
0.0033333302164722934
-0.0011890712337211684
0.0032273824805658224
-0.0008713154032446528
0.003137347556747483
-0.0005520571908410549
0.0030165767610312957
-0.00022666763003689766
0.00333485730836068
0.0001040545267128322
0.0029706553995177266
0.0004365914497310311
0.007459761606068257
0.0007710236242438673
0.0034425972996798854
0.0011078555810002822
0.00348559699616924
0.001432582605321593
0.0035836676049325286
0.0017181565845399993
0.0034031494100266327
0.0019444157072382525
0.003608104783350059
0.0021141017332098194
0.0033388269132219664
0.0022432761106463517
0.003793619315571377
0.0023405295911327114
0.006863850294448078
0.0024044173208779144
0.0036304181719686176
0.0024477626044965414
0.0033950946692500815
0.0024893798374139567
0.003230352586925572
0.00253426451283628
0.011796088065825532
0.002559324689383056
0.0030897619396782093
0.002537521132429671
0.003535737440800533
0.0024649423001814404
0.0029978897455438186
0.0023716381802082547
0.008157838188196705
0.002293918361329166
0.0029785001507106074
0.0022432394761837796
0.003656061739394802
0.002224876661674151
0.003129194067117944
0.0022545316300220885
-0.004510653267895271
0.002340804270098912
0.003530484933589156
0.002458783313928747
0.0036224674671304874
0.0025580956247774735
0.003698873423204639
0.002585174368430549
0.007166939692141304
0.0025408558825984577
0.0037765598215119987
0.0024857769485672272
0.004090979133912066
0.002470347757240711
0.0033760695976545007
0.0024948544936848724
0.003210503565368764
0.0025534922729938316
0.003301974780521058
0.0026503303588387215
0.00410852600661927
0.0027818538282255436
0.0032030857964967705
0.0029448329212622896
0.006395579912378566
0.0030791809297386306
0.003113074768657002
0.0030433149002608217
0.003747275638990623
0.0029163658370349775
0.0030691434888186295
0.002786058511220203
0.004264380114039357
0.002764406742361613
0.003054216732853102
0.002817255415993093
0.00370621312804895
0.0028933399033445554
0.003137834360701428
0.0031093481912550687
0.006761303953398088
0.0033528864405384887
0.0033927229099738644
0.0032797936691412277
0.0037388958783227248
0.0030182105841023476
0.003342802247471414
0.0029067440030033564
0.0032806196472339763
0.002872844372898127
0.0030136724009948335
0.002855899499138016
0.0038378098615840673
0.002857407318079214
0.002991313476625249
0.00287699752645639
0.006230695391628904
0.003061299926751289
0.0029419449197776175
0.003576698780997342
0.004017779019573588
0.003688198877758386
0.002831451337426339
0.0032868247317777654
0.0026542859584649946
0.0028671579766096638
0.002848772257468308
0.0026402674038040357
0.004185483170820162
0.002573875599843211
0.0028843142132224902
0.0025306429719426
0.005211837549231673
0.002761163264413403
0.002971617123972186
0.0030505417884779166
0.004187836599190491
0.0035430076799117974
0.0029098666883140786
0.003570727303119949
0.0033440798736419602
0.00337209637588573
0.002821735805897523
0.0032287894940843317
0.004534663569053903
0.0026816659079417376
0.002656522777471329
0.002564004281769643
0.002849774901011054
0.002454653961435354
0.0025796999916212907
0.0023369160554773147
0.004299369856777566
0.0025498066585493587
0.0024592075751187752
0.003169119293187985
0.003936915967429828
0.0032224243987668826
0.0023713062890318554
0.003508067254043408
0.00433642047551855
0.0034298347497603307
0.002321643616038464
0.003368002184740904
0.00574891669117075
0.003252352512424869
0.002342228236464035
0.002802154377361403
0.003911481463461095
0.002473549914305667
0.00238338815754203
0.002268175248491763
0.0033141761438431165
0.002920263026470649
0.0023976355967081373
0.002908330240971846
0.0036816400496491254
0.003453711835269582
0.002317771659424844
0.0032254035369370547
0.00013365911478948957
0.003718433012546014
0.0022306587902042787
0.0037794624467479706
0.003772593074331596
0.00408035578802517
0.0021404461039825793
0.003780855396814266
0.00354564568742249
0.0037522501923082843
0.002065093005817524
0.0030982826337362613
0.00409500771875971
0.0029690358728444535
0.0020255311953724492
0.002590127563515556
0.006161056391236689
0.0027483470693195067
0.00203062547594345
0.0025542509247767115
0.004101810474389278
0.002885434447732099
0.0020707664393986914
0.002868147709136823
0.003238867158180265
0.0031815828672684962
0.0021476281636896933
0.0029054051676419713
0.004677374819083781
0.0027385782309675383
0.002226782874191938
0.0028944050421030694
0.011430350459835146
0.0024727671530843636
0.00228853528758962
0.0023221665879587156
0.0047351567472697165
0.001413429277953667
0.002314422476746409
0.0014854841634226003
0.003889261755590475
0.000785255031476445
0.0023117379621723664
0.001084848045533485
0.004637617324222917
0.000345170695455489
0.0022869977631531056
0.0008329513834724605
0.006057520679331082
0.00016675223287875078
0.0022533712479900748
0.0005040068429071282
0.004532280644672942
-8.175756564305817e-05
0.00220992230897399
-2.4412871427245687e-05
0.0035147521903836055
0.0010857145219562191
0.0021436376695126466
0.0015125059528388243
0.004368516832796477
0.0014616167094080043
0.0020447126409469797
0.0019107501884467074
0.005518346075719142
0.002734170563503647
0.0019116961095168496
0.003607145309030925
0.004002719781588374
0.0027162190591277437
0.0017378081820246137
0.005234134490848326
-0.002620883059634097
0.006283747937070902
0.001515003719518038
0.00733662037090288
0.00380329106459882
0.008361450882425648
0.0012434124688824504
0.009642505909650302
0.0054694663822739435
0.01125968944201413
0.0009337201887886463
0.012704771629672387
0.004619751851164842
0.013860784508757822
0.0006053490409737175
0.0141162793107082
0.0035118161723327124
0.014464087189776303
0.0002702920775151192
0.0153290297156704
0.004796861381970017
0.014901167015136302
-6.695863582588531e-05
0.015528015366346576
0.005434252321177578
0.014473286574470673
-0.00040244558457361925
0.014681489312424186
0.0049552751898873275
0.014273664252217762
-0.0007329853828743103
0.013711148642996645
0.0038640486778433332
0.014008428017968855
-0.0010538711248038787
0.013491127258875128
0.005121181379933284
0.013144323556674515
-0.001370373578301464
0.012386572052711667
0.004489657088838493
0.01254588026255934
-0.0016910732434031453
0.011330025308682556
-0.0005836522357785136
0.01105411930943589
-0.0020073631198794135
0.009995194839865532
0.003551320347987953
0.009761544316684577
-0.0022881132836268746
0.008686364057099782
0.005573794591578723
0.008520191446631553
-0.002449415221990066
0.007575171577467452
0.0047658062021557115
0.007470560561234621
-0.002663820256773652
0.006506132739085684
0.0016228026142618343
0.006154661242771439
-0.0029970029546035424
0.005151583815809086
0.0035977754293955466
0.004904968959992691