# vtk DataFile Version 1.0
GRUMMP topologically 2D mesh
ASCII

DATASET UNSTRUCTURED_GRID
POINTS 6176 float
  1.0000000000000000   0.0000000000000000   0.0000000000000000
  0.9979736161243241   0.0002872981906159   0.0000000000000000
  0.9959038003591104   0.0005818082753016   0.0000000000000000
  0.9937894604158818   0.0008826109490225   0.0000000000000000
  0.9916311447855282   0.0011889740049165   0.0000000000000000
  0.9894256878168368   0.0015011074645448   0.0000000000000000
  0.9871732566523234   0.0018189104108560   0.0000000000000000
  0.9848739492731372   0.0021423104928037   0.0000000000000000
  0.9825241245750710   0.0024717658271048   0.0000000000000000
  0.9801244133260449   0.0028071825305054   0.0000000000000000
  0.9776732769852096   0.0031487906039340   0.0000000000000000
  0.9751690039483889   0.0034968357351786   0.0000000000000000
  0.9726117072730877   0.0038512643819321   0.0000000000000000
  0.9700001180350898   0.0042121148976419   0.0000000000000000
  0.9673332227148538   0.0045793859121594   0.0000000000000000
  0.9646079236541195   0.0049533708962095   0.0000000000000000
  0.9618249648196705   0.0053338679490647   0.0000000000000000
  0.9589807878895711   0.0057213439443832   0.0000000000000000
  0.9560767311296049   0.0061156062701256   0.0000000000000000
  0.9531120216710255   0.0065167463399167   0.0000000000000000
  0.9500819018783057   0.0069253778138591   0.0000000000000000
  0.9469876484068450   0.0073412143029309   0.0000000000000000
  0.9438286210030068   0.0077641908681895   0.0000000000000000
  0.9406001269296587   0.0081947829660712   0.0000000000000000
  0.9373041277084813   0.0086325757434285   0.0000000000000000
  0.9339368121646437   0.0090779560824189   0.0000000000000000
  0.9304976431076690   0.0095309377793780   0.0000000000000000
  0.9269838874379289   0.0099918267186165   0.0000000000000000
  0.9233965242394278   0.0104604374002928   0.0000000000000000
  0.9197323684717913   0.0109371203977286   0.0000000000000000
  0.9159901296799260   0.0114219111797446   0.0000000000000000
  0.9121662515702946   0.0119150917142392   0.0000000000000000
  0.9082612640703632   0.0124164093968364   0.0000000000000000
  0.9042711890176098   0.0129261849544228   0.0000000000000000
  0.9001985925103467   0.0134439182275261   0.0000000000000000
  0.8960367883853674   0.0139703538547480   0.0000000000000000
  0.8917881131106570   0.0145051006126241   0.0000000000000000
  0.8874465968544013   0.0150488093430172   0.0000000000000000
  0.8830132689405343   0.0156012428338051   0.0000000000000000
  0.8784843643309772   0.0161627200549514   0.0000000000000000
  0.8738585592690924   0.0167332093564690   0.0000000000000000
  0.8691331845657406   0.0173128340473851   0.0000000000000000
  0.8643080629784704   0.0179014022230632   0.0000000000000000
  0.8593790220315882   0.0184992057974382   0.0000000000000000
  0.8543443022105112   0.0191062525475961   0.0000000000000000
  0.8492020742372332   0.0197225542022908   0.0000000000000000
  0.8439504592998461   0.0203481184762133   0.0000000000000000
  0.8385847225217766   0.0209832807547837   0.0000000000000000
  0.8331043690503205   0.0216278714070098   0.0000000000000000
  0.8275075883744546   0.0222818740978654   0.0000000000000000
  0.8217896079901662   0.0229456038551552   0.0000000000000000
  0.8159499389768221   0.0236188617887649   0.0000000000000000
  0.8099850870934132   0.0243017702717010   0.0000000000000000
  0.8038929332928342   0.0249942623102002   0.0000000000000000
  0.7976697970229181   0.0256964297179088   0.0000000000000000
  0.7913134730328051   0.0264081777898121   0.0000000000000000
  0.7848218596203610   0.0271293903098903   0.0000000000000000
  0.7781898173908960   0.0278602762976724   0.0000000000000000
  0.7714169256365310   0.0286005013921829   0.0000000000000000
  0.7644979701754163   0.0293502351726533   0.0000000000000000
  0.7574308659438134   0.0301093068082177   0.0000000000000000
  0.7502135053150701   0.0308775557618342   0.0000000000000000
  0.7428404612557281   0.0316551512399728   0.0000000000000000
  0.7353096164115749   0.0324418730798164   0.0000000000000000
  0.7276172963491144   0.0332375368705936   0.0000000000000000
  0.7197598859172740   0.0340418579688506   0.0000000000000000
  0.7117355290536627   0.0348543282856948   0.0000000000000000
  0.7035389878799579   0.0356747811793425   0.0000000000000000
  0.6951650952820780   0.0365031090698871   0.0000000000000000
  0.6866122709923126   0.0373388258653197   0.0000000000000000
  0.6778754950330185   0.0381817369178559   0.0000000000000000
  0.6689534383202176   0.0390312029136988   0.0000000000000000
  0.6598376964403885   0.0398871771799410   0.0000000000000000
  0.6505290121117546   0.0407486821288951   0.0000000000000000
  0.6410191910005383   0.0416153892989160   0.0000000000000000
  0.6313056496470314   0.0424862165552765   0.0000000000000000
  0.6213823079172336   0.0433602824420315   0.0000000000000000
  0.6112489281649386   0.0442362457646169   0.0000000000000000
  0.6008963123926909   0.0451137308907019   0.0000000000000000
  0.5903211292528141   0.0459917803130241   0.0000000000000000
  0.5795184839365645   0.0468692540951747   0.0000000000000000
  0.5684857150099230   0.0477443424041717   0.0000000000000000
  0.5572148862675538   0.0486154402631608   0.0000000000000000
  0.5457024491672809   0.0494805599680832   0.0000000000000000
  0.5339780836677636   0.0503353194116202   0.0000000000000000
  0.5219860728183490   0.0511813660693644   0.0000000000000000
  0.5101253307512127   0.0519891081313360   0.0000000000000000
  0.4985043971600128   0.0527514649709832   0.0000000000000000
  0.4871181100865982   0.0534694955937708   0.0000000000000000
  0.4759663238182478   0.0541439373921026   0.0000000000000000
  0.4650424897306392   0.0547759224024376   0.0000000000000000
  0.4543414694194311   0.0553665338532900   0.0000000000000000
  0.4438615277983380   0.0559167464857066   0.0000000000000000
  0.4335966445555638   0.0564277439227250   0.0000000000000000
  0.4235422171719039   0.0569005367499369   0.0000000000000000
  0.4136931783754329   0.0573360485787389   0.0000000000000000
  0.4040479201781875   0.0577350333573017   0.0000000000000000
  0.3946007843384192   0.0580984587592611   0.0000000000000000
  0.3853459130056055   0.0584273588583778   0.0000000000000000
  0.3762828394437238   0.0587225582688298   0.0000000000000000
  0.3674052759622001   0.0589850521268143   0.0000000000000000
  0.3587104110044708   0.0592156767487264   0.0000000000000000
  0.3501952433465900   0.0594152538281565   0.0000000000000000
  0.3418548081050912   0.0595846279097528   0.0000000000000000
  0.3336858663230149   0.0597246577421592   0.0000000000000000
  0.3256868701986138   0.0598362486465025   0.0000000000000000
  0.3178507769372301   0.0599203474438374   0.0000000000000000
  0.3101776523444911   0.0599777679649948   0.0000000000000000
  0.3026620994593082   0.0600092896252224   0.0000000000000000
  0.2953022098091474   0.0600156089816429   0.0000000000000000
  0.2880942515540157   0.0599974067416477   0.0000000000000000
  0.2810344582773878   0.0599553507162620   0.0000000000000000
  0.2741224198462300   0.0598902308958287   0.0000000000000000
  0.2673508102792782   0.0598027829062179   0.0000000000000000
  0.2607208372897423   0.0596938009430880   0.0000000000000000
  0.2542268737219818   0.0595639532054747   0.0000000000000000
  0.2478699323930078   0.0594139942796022   0.0000000000000000
  0.2416426526986943   0.0592444560641495   0.0000000000000000
  0.2355443386744786   0.0590559928562533   0.0000000000000000
  0.2295742285057687   0.0588492600763349   0.0000000000000000
  0.2237267309732288   0.0586247739586633   0.0000000000000000
  0.2180011540540604   0.0583832555000465   0.0000000000000000
  0.2123936096745636   0.0581252700988444   0.0000000000000000
  0.2069018249031851   0.0578514118247249   0.0000000000000000
  0.2015265925874962   0.0575624139311738   0.0000000000000000
  0.1962639217171782   0.0572587327640815   0.0000000000000000
  0.1911098627978642   0.0569407701058159   0.0000000000000000
  0.1860635373512509   0.0566090833477142   0.0000000000000000
  0.1811225555455632   0.0562641183158228   0.0000000000000000
  0.1762831066659017   0.0559062017034564   0.0000000000000000
  0.1715472965099615   0.0555361405439852   0.0000000000000000
  0.1669099315072494   0.0551541804881659   0.0000000000000000
  0.1623702175183220   0.0547608759938091   0.0000000000000000
  0.1579259317985442   0.0543566416724963   0.0000000000000000
  0.1535748664842349   0.0539418626674859   0.0000000000000000
  0.1493147619729656   0.0535168899310313   0.0000000000000000
  0.1451447283274916   0.0530821904592715   0.0000000000000000
  0.1410625235604109   0.0526380756497570   0.0000000000000000
  0.1370659530359299   0.0521848322503466   0.0000000000000000
  0.1331567814638518   0.0517231967360234   0.0000000000000000
  0.1293276562313525   0.0512528455259629   0.0000000000000000
  0.1255804504092525   0.0507745502773552   0.0000000000000000
  0.1219131281255899   0.0502885988465475   0.0000000000000000
  0.1183237015509818   0.0497952534010120   0.0000000000000000
  0.1148102318092792   0.0492947513229479   0.0000000000000000
  0.1113720175725520   0.0487874812015910   0.0000000000000000
  0.1080070759532941   0.0482736140267307   0.0000000000000000
  0.1047146335147149   0.0477534816268928   0.0000000000000000
  0.1014927513745349   0.0472272179600503   0.0000000000000000
  0.0983395479756496   0.0466949369878610   0.0000000000000000
  0.0952554508934213   0.0461571322873805   0.0000000000000000
  0.0922363866432952   0.0456135046927440   0.0000000000000000
  0.0892828700951544   0.0450645654218522   0.0000000000000000
  0.0863942718297865   0.0445106297655928   0.0000000000000000
  0.0835678320075330   0.0439515803137779   0.0000000000000000
  0.0808019575920066   0.0433874837688950   0.0000000000000000
  0.0780971710598979   0.0428188278852694   0.0000000000000000
[...]
POINT_DATA 6176
SCALARS continuity float
LOOKUP_TABLE default
0.006013886338039502
0.0063937017481436875
0.005920183242935485
0.005979776479032645
0.006050427044531481
0.006067407091336452
0.006075446442409111
0.0060526185634051915
0.00603046800104426
0.00600852488527649
0.005971067815971428
0.005959285790413678
0.005930295560556393
0.005895635255752401
0.0058535082489654935
0.005810783109917239
0.005751886232062476
0.005704070054591508
0.005647119420009861
0.005616697824999482
0.005570371472610592
0.0055197507626391145
0.005463713992837448
0.005404713646449917
0.005345322094931387
0.005285008212654693
0.005225229639845272
0.00516599329317353
0.005110144366694965
0.00505565188364606
0.005000347293464925
0.004944460664919148
0.004887429408613763
0.004829477192745588
0.004770921346344022
0.0047125425688571065
0.004655839257809075
0.0046025503611681505
0.004550411790249372
0.004496785905579654
0.00444075078365609
0.0043816935375493695
0.004317841182990226
0.004253760851472344
0.004194356713369672
0.004141879589258723
0.00409021589755555
0.0040362066132909056
0.003976786043995059
0.003912034402758125
0.0038422113854155835
0.003769725523649958
0.0036992574172327133
0.0036333719455086894
0.003570285085216542
0.0035057154801841546
0.0034372094637981822
0.0033643306103304437
0.003286884023979278
0.0032030589800426308
0.003116124203691094
0.0030314727633872487
0.002952772039400526
0.002877117359343782
0.0028017616281763263
0.0027253156172075944
0.0026500281637739835
0.0025747753164799044
0.0024959610663137133
0.0024068295527556694
0.00230714471428101
0.0022037958064965416
0.002105562047163348
0.002015352674246204
0.0019281637816888461
0.0018359230965987313
0.0017343663522692587
0.0016203743490993696
0.001492829898451505
0.0013572866359505265
0.0012246366830977217
0.001100288657945185
0.0009824885138222865
0.0008705547283325834
0.0007579908500010893
0.0005686652245816429
0.0003085398049875583
9.671838185402643e-05
-0.00011209713678602778
-0.00031731976900206975
-0.0005125941377175263
-0.0006942139268799215
-0.0008650254280810583
-0.0010318794380929314
-0.0011968800751829436
-0.0013594666179187215
-0.0015203693263915311
-0.001684510082894985
-0.0018507771259996804
-0.002005057523993017
-0.0021347408962615385
-0.002238388120053897
-0.0023257508416969328
-0.00240434079615399
-0.0024744302830195155
-0.0025380395617459507
-0.0026054625771255633
-0.0026810407349632673
-0.002749022930504609
-0.0027869135213983666
-0.0027936767619556025
-0.0027873521074940036
-0.0027832627105209124
-0.0027822717819401257
-0.002780924035326237
-0.0027886315160932573
-0.002820089255668989
-0.0028585654446150583
-0.0028562063230550814
-0.0027999248195093615
-0.002723074378880717
-0.0026586701955962993
-0.0026096402214461946
-0.0025605230621533414
-0.0025140288620733287
-0.002498411798726587
-0.002520849693017444
-0.002505265253397111
-0.002391498378087547
-0.0022251220553983872
-0.002061494543003732
-0.0019432784699838347
-0.0018411527684285233
-0.0017618951392957681
-0.0017503478715009337
-0.0017561192986256973
-0.0015612873219514707
-0.0013058439946093472
-0.0011533465825878174
-0.00102655165736041
-0.000889216645846696
-0.0007349235296365023
-0.0005831707478960744
-0.0005174385221810075
-0.0005989254440660864
-0.000541913419026846
-0.00023931800829781646
9.277820678586912e-05
0.0002895420913474606
0.0004444132314663121
0.0006146021482054841
0.0007178841836613641
0.000762322347906668
0.0006626253033610534
0.0009401292545580956
0.0011590663543870187
0.001441806892590969
0.0017367347267410772
0.0018875183892880744
0.0020267119948260107
0.0022876987142057643
0.0025015599061615833
0.0023812905473865552
0.002647875078306475
0.0029564686530029753
0.003146991367670555
0.003364477967758827
0.003609863239214516
0.0038820453969780045
0.004166674712081846
0.004678362998708407
0.0046158773269937715
0.00478293104124799
0.004878153667653449
0.005155683007426464
0.005306235596824849
0.005594683465479831
0.005410972719127626
0.006000742546846046
0.005933644529926687
0.006493220495399487
0.006528532133783338
0.007078840287838177
0.007034643574223972
0.007512994381165728
0.007463201567231303
0.00787137518275694
0.00784858071917404
0.008217501437872247
0.008250526179626648
0.00856887052711279
0.008754783127635425
0.0087525840896732
0.008948556143435796
0.009163416225167536
0.00937497207665295
0.009436129838088078
0.009523546490802292
0.00952193529647667
0.009495268668667664
0.009365532628594117
0.009206927623993017
0.00893973141931016
0.008324789216068993
0.007943283141452755
0.007182988443562331
0.006968855551079676
0.0064193133708579505
0.00587935426752125
0.005495137592790408
0.005269915864066817
0.004459083945789118
0.004376335334543847
0.004558732659272397
0.004777480147845047
0.004954049226308211
0.0049104856467340465
0.00519053354429709
0.005666533158377579
0.0066531129735785555
0.006942334619489817
0.0069928678578732775
0.007219117863479429
0.007631297528068147
0.007841021219441052
0.00807959406462348
0.00794306415516136
0.0076736564752958565
0.007551385455897869
0.007263559863533678
0.007401202683958261
0.007124730162312472
0.007168796876250002
0.0065394059631722875
0.0070554902623148
0.006411877374967531
0.006757440851865643
0.006081388204695716
0.006346528003904356
0.005677583137455223
0.005879712368881668
0.00527081826170065
0.005548337053708059
0.004951725288268953
0.005175339384713691
0.004545847989429113
0.004706416777401581
0.0040566223895932485
0.004155052908227239
0.003961021633676963
0.0037277694820976683
0.003434793658747055
0.003399364452795188
0.0031167979487023365
0.0029494705665894082
0.002755158519178712
0.0026142053168128785
0.0024772294709865016
0.002364038060474584
0.0021956714046374045
0.0019108892871745962
0.0019066257528877768
0.0017380652166490598
0.0015740921106489982
0.0014487997618811883
0.0012714190079725891
0.0011187120746773483
0.0009224719194030407
0.0007896678685532063
0.0006665114489666088
0.00047204853216433737
0.0004752070917723471
0.00041519463383170877
0.00030176846330726647
0.00017802797960831282
1.526310553018635e-05
-0.0001496929075963313
-0.00025827819154908933
-0.0003568690980274084
-0.00043349870700310346
-0.0005113908862566256
-0.0005952778439287516
-0.0006870914937505089
-0.0007777372146308375
-0.0008681913924667814
-0.0009623370705017954
-0.0010573695271359359
-0.0011596305749412182
-0.0012492081283415302
-0.0013239729919515952
-0.0013808467439345494
-0.0014299542600253305
-0.0014892234463004753
-0.0015542041586646318
-0.0016230504253298792
-0.001698845986101127
-0.0017769767653542435
-0.0018392088938601946
-0.0018783309451191092
-0.0019027567398606355
-0.001926835655239445
-0.001951238949075981
-0.001972213871151377
-0.001996304026893335
-0.0020288373508285614
-0.002061446333483943
-0.0020790172575135346
-0.002079978791297996
-0.0020758171150238643
-0.0020736473317948755
-0.0020727628419268374
-0.00206954750105416
-0.002062334922531596
-0.002052861438301212
-0.0020463099936854456
-0.0020399331052083965
-0.0020232560856614647
-0.0019849266083339914
-0.0019237156827232314
-0.001842186704939464
-0.0017420656097138856
-0.0016239911113387405
-0.00149227056740743
-0.0013496993758479814
-0.001193495814489529
-0.0010174313689362653
-0.0008192168440308114
-0.0006025564252663937
-0.00037006235419603215
-0.00012226650144883165
0.000139776697509086
0.00041143489762255156
0.0006856723533900976
0.0009585950348057553
0.0012299931523770179
0.0015017701987639406
0.0017707398591407253
0.0020358831413531896
0.0023841411858986964
0.0027246073607710346
0.0029490876000008667
0.0031562117370536285
0.0033514011949529647
0.0035320830209352332
0.0037010164612997732
0.003864145011864023
0.004022808111540835
0.004173126326657538
0.004311787132969589
0.004435623815853072
0.004543851964402779
0.004638523481553405
0.004728998910748739
0.004821112959754181
0.004911739145679293
0.00499441296932071
0.00506846938327677
0.00513524840906895
0.0051954978225853
0.005247681590642395
0.005288538769212598
0.005320560676142359
0.0053520881982266596
0.005389940926659843
0.005431241638220436
0.00546840633091916
0.0054992370920591335
0.005524295403053722
0.0055411613364893504
0.005547525613832266
0.0055576195286563
0.005581562728244789
0.00561121304259788
0.005637399807871056
0.005659825408658632
0.005682534023317468
0.005707749624444231
0.005730711196123797
0.005741647781522432
0.005747398304416238
0.005769520943344389
0.005806676533820556
0.00584443549403346
0.005877506333177094
0.005907866341652312
0.005939573039575846
0.005970608323089513
0.005991289285901961
0.005997803490753508
0.00600821344739125
0.0060269301954961885
0.006058536712791206
0.006089965591207322
0.0061144783981472075
0.006133434470049468
0.006140997177323566
0.006136849711903957
0.006115296655307858
0.006119216635515152
0.006134415388046414
0.006133223285537477
0.006122469904251395
0.00610918379660525
0.006098380744652143
0.006084048861263142
0.00604779366425648
0.006007182989448312
0.005979797513668674
0.005955476665669941
0.005949876604457656
0.005939395623611168
0.005921637882512074
0.005905492635574983
0.005903078468199623
0.005882038151396229
0.005898959956231201
0.005912903829536736
0.005936475880646034
0.005950028000391894
0.00601028257146843
0.00611011618917922
0.006049896605124073
0.006065741902640807
0.006377570331043535
0.006331132823577408
0.006090286248868765
0.005947662789030273
0.0061310025085680175
0.006170486130466184
0.006167682559983729
0.006079369823402299
-0.002923721912678023
0.006065362252908991
0.004652846331915247
0.006011802409502068
-0.006460183551880897
0.0060484387876245955
0.004815396094554197
0.006067464770989015
-0.0029796192678404575
0.006071465920396513
0.005495970969029974
0.006058494509590477
0.0026382239569501366
0.006034271950377414
0.0060766129446554575
0.006009440896554534
-0.003039937645953015
0.00598712765358715
0.007107921220046716
0.00595581874459636
-0.0033260167439429825
0.005925812392636634
0.0067771619978868195
0.005890757700577266
-0.0031088524059797854
0.005847893923757435
0.007745872871612892
0.005805367654939803
0.002310951080471994
0.005759096589035181
0.007176596961027117
0.005707342436595011
-0.0031230270896652344
0.005662385535073915
0.008017034270793078
0.005610906560576138
-0.005342005405748708
0.005562688015728066
0.007091413449721724
0.005510947793022092
-0.003129291055632408
0.00545589666776918
0.007742046647064227
0.005392617343888738
0.0017910588001809802
0.005326930252207907
0.007008069845943686
0.0052641219012146976
-0.003107972658583945
0.005207515827660668
0.007472406623553933
0.005152535887818015
-0.0035152873407472193
0.005097913721732699
0.0067079532739691234
0.005042884763347031
-0.003126779707429335
0.004987022395293694
0.007358198639254911
0.004930366229276383
0.0015426901329279655
0.004872968444493695
0.0066875168836014265
0.004815148011497989
-0.0031498499358603585
0.004758115084887112
0.0071309103671567346
0.004698831864917998
-0.005741859438625539
0.004642933805247418
0.006527440255561582
0.004588750458741196
-0.003164595462321963
0.004537492767341756
0.006821811052000591
0.0044840376964458886
0.0012529271831366734
0.004427736119289713
0.006194428016453964
0.004368319535172686
-0.0031712682707379955
0.004304685126059846
0.006505961982768613
0.004242150922354244
-0.0036861718503244352
0.004184782836552322
0.00574685942450331
0.0041334971535774935
-0.0032093635106513483
0.004082585738320634
0.006068056146259883
0.004027595428003429
0.0002641908198805246
0.003967482183136471
0.005287792942129573
0.0039022424668769635
-0.0032527625596162385
0.0038319861559203985
0.005115055234326187
0.003760233864850722
-0.0056165397061066335
0.0036918931955120353
0.004892079537525673
0.003627778794713099
-0.0032467126181111943
0.003565298986326808
0.004717780167760488
0.003500123414316772
2.5219509799771405e-05
0.0034311175334043255
0.004407318764215743
0.0033580891779168747
-0.003160415831851513
0.0032792869911548958
0.004624929304810467
0.00319405315359708
-0.0037196364415482347
0.003107908779990549
0.0039004345621502364
0.003025682748019184
-0.003082543124892307
0.002948162399184958
0.004168077386130313
0.0028726542157690447
-0.00029583277589516197
0.0027974131877229486
0.0036355251566613724
0.0027217944058142668
-0.0030133418238013163
0.0026475960765071564
0.0038564876578629863
0.0025728395733590234
-0.00367822793014285
0.0024919169902231225
0.0032764791534587974
0.0024003502897653652
-0.0030102034741302805
0.0022997187057379005
0.0037377654651796527
0.0021980383083599116
-0.000859377519119308
0.002103002147198986
0.0031522888157646503
0.002015386270817248
-0.0029892053078929295
0.0019284729129743433
0.003318187186767365
0.0018354130039731516
-0.0037476406913175076
0.0017325702989063156
0.0028129493731543103
0.0016161312210727732
-0.002967619645292867
0.0014862142403868719
0.0027454177369587904
0.0013514515008523013
-0.0011105537571048515
0.0012217666840671738
0.002386890712788104
0.0011001776849110597
-0.0029852438947902647
0.0009835529563700992
0.0022359310948841834
0.000872301118631284
-0.005523298528688876
0.0007624683735185636
0.00198042606772048
0.0005669458748622212
-0.002952609908406127
0.00035345307095642004
0.002000579688470298
0.00013721631022392628
-0.0014423568673807773
-7.143577892294934e-05
0.0016825045519230637
-0.00027671692920180213
-0.002980380413867582
-0.000473694514710646
0.0015327078366765576
-0.0006557550126668185
-0.0037659746017167394
-0.0008256078692812151
0.0015680389029968848
-0.0009896611813686744
-0.002880259511213578
-0.0011531127415959268
0.0014408508215181717
-0.001315398675445528
-0.0016580688399563705
-0.0014754134651717944
0.001124109485681838
-0.0016365170237428884
-0.002728348204983983
-0.0018002462112383505
0.0007982126710241233
-0.0019558456693189374
-0.006038056577431266
-0.0020886454548163604
0.0006787679486308531
-0.002193344157014303
-0.002533724274510915
-0.0022786541521369027
0.00048585234741130697
-0.0023546364675236728
-0.0021872780628882232
-0.002424995153299229
0.00038868734784457717
-0.0024890058568498947
-0.0024377408576709615
-0.002552929983704854
0.0002945736135273113
-0.0026226581774925067
0.0017412726104306193
-0.0026897048864696236
0.00019436973628279906
-0.0027319423099824436
-0.002405388681555232
-0.0027405414290944904
0.00018499901495876769
-0.002730536521441517
-0.0020648894430709682
-0.0027203706599244564
8.876147284083895e-05
-0.002719008409966094
-0.0024442049280458383
-0.0027197464500387574
-3.865561462796857e-05
-0.0027261429033700237
0.0008151849790762674
-0.002747291723974765
-0.000376729066853218
-0.002778964674431647
-0.0023126226358963125
-0.002784507784734028
-0.0007086053055227482
-0.002735204767347352
-0.002054341914049177
-0.0026570767641875817
-0.0008008155874055233
-0.002581940175022532
-0.0023532732618562644
-0.0025303791280702984
-0.0007990967817996028
-0.002485227728176914
-0.003867986797919768
-0.002445902047976095
-0.0009289918179520119
-0.0024239437549820773
-0.002308828612794211
-0.0024292170562063794
-0.0009434866218013215
-0.002417536945137042
-0.002051824838222072
-0.002309910415469524
-0.001035944711696839
-0.0021558002819497993
-0.001915975067307244
-0.001989967294394434
-0.001146573391026626
-0.0018665983718318916
-0.005315731273861727
-0.0017719906153896587
-0.001245960565079254
-0.0016977452293944566
-0.0017896274269238407
-0.0016719310044641996
-0.0013377697881447673
-0.0016501071031559068
-0.0028641399538673388
-0.0015038371616405376
-0.001603724540211826
-0.0012740461531677138
-0.0017598804323483766
-0.0010853996781602254
-0.0018083467385716877
-0.0009630351575372022
-0.003942131260010204
-0.0008349418536424667
-0.0018524858241840355
-0.0006952648313468488
-0.0017143710042795397
-0.0005654846881757457
-0.0019194360060123495
-0.000526311639193714
-0.0023761347693438384
-0.0004966116001684953
-0.0019399587090333293
-0.0004544862255773218
-0.0017029429380821383
-0.00022614695011334088
-0.002011013763701709
0.00010483851097720155
-0.0061681509413405765
0.0003449557088320937
-0.0020845018599739418
0.0004846470396454713
-0.0017960150378508594
0.0006297743792330052
-0.002223325435786199
0.0006946790337710528
-0.0015797871934619522
0.0007654244773462395
-0.002367193806256303
0.0008610895398056069
-0.001509841485754855
0.001015604009900249
-0.002529918268352085
0.0012101591595226396
-0.003998579455372484
0.0013675967847095766
-0.0026117531304856306
0.0017215951914337534
-0.0015466296236557493
0.0019334808784917882
-0.0026185150750379443
0.002063256710795824
0.002057615782272573
0.0022388295142253003
-0.0026135187842090757
0.0024016036519929414
-0.0013854709805731903
0.002493644369534497
-0.002641861054436263
0.002720690885886486
-0.005112507906573155
0.00295344402991997
-0.002676206137764468
0.0031004359425666718
-0.001456408054831504
0.003448632996700931
-0.002707838844109695
0.003569103331022408
-0.002196780073691155
0.003953897636663246
-0.0027456435677514226
0.004215946721896027
-0.0009756985339639506
0.004449088947146993
-0.0028242552978082185
0.004605442265698223
-0.0041325453290249
0.0046530493257407905
-0.0028875010538473443
0.004865830139943904
-0.0007903597763067895
0.005027547330515269
-0.002934910002337277
0.005278669112503361
-0.002684419328920999
0.005435435563657623
-0.002919982145366186
0.0055496526021209715
-0.0006962689206998201
0.005844089328258274
-0.0028983714602126612
0.0060922997262465185
-0.006501846416448923
0.006392943341236271
-0.002884888061350545
0.006689666941418972
-0.0009522325210747012
0.006956757685259661
-0.002873989913567643
0.0071309960025589935
-0.0025182206477867143
0.007355237458983912
-0.0028644491112127203
0.0075122801734892755
-0.000737868565918916
0.007685302471351348
-0.0028587843274491217
0.007864251300180272
-0.004180689105540306
0.008008925224433465
-0.002865832902473369
0.008160262169232524
-0.0008861182267039789
0.008293570155451454
-0.002868222477392306
0.008372130228983667
0.001510803040101518
0.008485563121015595
-0.002851445425688869
0.008496162335805992
-0.0007462303171412845
0.008817040647703034
-0.0028033290320952572
0.008826918432507219
-0.005153648099400409
0.008972276101710365
-0.002741833584548003
0.008837168365047108
-0.000544135454160145
0.008880709930217194
-0.002681327786457447
0.008600561694892362
-0.002934928766179657
0.008459283502070173
-0.0026177599614047604
0.007903618605586304
-0.0002853382591841588
0.007387801022772812
-0.0025478120620688826
0.006825663575167219
-0.004359588654780201
0.006510885780104293
-0.002472151165982448
0.005814507473684822
-6.0249411084567976e-05
0.0055861440133761365
-0.0023935478658186145
0.005157365092867533
-0.0027405741188500387
0.004707895392503004
-0.0023030645816296065
0.00440783421496705
8.082280647540556e-05
0.003917417101032806
-0.0021917726746732
0.003356749377272605
-0.0008728998868333061
0.0033012437090017646
-0.0020550934195114243
0.003413913164674885
0.0006968929671850234
0.0034714746466000357
-0.0019016177322580042
0.0036074911722109677
-0.0030638782347202145
0.0038025228617888655
-0.0017434752653251416
0.004270954788549245
0.00011358510614296291
0.004836829396679633
-0.001583830250044197
0.005269125128394138
-0.0044306412587868165
0.0058550006153821185
-0.001419923083322464
0.0062942980212680475
2.6678222801792614e-05
0.007034723906064618
-0.0012528367033536585
0.007365678845634677
-0.0029932001535811605
0.007915683540778685
-0.0010846269122402117
0.008035839483019674
0.00016605201758872624
0.008001946776017664
-0.0009161068180101041
0.007909210040200686
-0.004885952022320439
0.007642596245961999
-0.0007415622030536636
0.00758026915855906
0.0004345847558016954
0.007444398156156768
-0.0005562240652907177
0.007443236609129871
-0.0020636193458604736
0.0071197671221359315
-0.00036004253977569645
0.007152853217697672
0.005263723818218833
0.0069974600042735325
-0.00015982303493652006
0.006968066859444273
-0.004347267210867762
0.006722714844449011
4.530510374432912e-05
0.006605066865526234
0.0005016017547850046
0.006329446727991378
0.0002621356316234721
0.006168218929651797
-0.0026991013908404934
0.0058717975504519885
0.00045621840783321163
0.005712098184670629
0.0020110093311328458
0.005504339089350211
0.0006614586659378884